
327 atoms
5 atom types
   0.0000000000   14.9800000000 xlo xhi
   0.0000000000   14.9800000000 ylo yhi
   0.0000000000   14.9800000000 zlo zhi
   0.0000000000    0.0000000000    0.0000000000 xy xz yz

Atoms # atomic

 1 1 -1.05424 5.41565 -1.14866
 2 2 -1.36748 4.80177 -0.469834
 3 2 -0.135889 5.70142 -0.761015
 4 1 4.28501 2.73476 9.32412
 5 2 4.43953 2.35551 10.1984
 6 2 3.80272 2.01081 8.86992
 7 1 1.44775 3.83916 6.14573
 8 2 1.15776 3.50905 7.04867
 9 2 1.34003 3.08706 5.48115
 10 1 7.71281 13.9834 11.0179
 11 2 6.84817 14.2004 10.6351
 12 2 7.60166 14.2377 11.993
 13 1 18.4039 15.3516 5.82585
 14 2 18.6284 14.6345 5.21918
 15 2 17.6512 15.8521 5.28309
 16 1 8.8049 11.4991 10.9367
 17 2 8.54385 11.2494 9.99881
 18 2 8.38598 12.3883 10.9188
 19 1 10.4342 8.71255 19.6184
 20 2 9.43544 8.46849 19.7223
 21 2 10.8174 8.13098 18.9031
 22 1 5.07338 14.4353 9.96181
 23 2 4.451 14.8771 9.29783
 24 2 5.06459 15.027 10.7991
 25 1 1.71162 1.73352 16.3463
 26 2 2.50213 2.35199 16.3247
 27 2 0.929945 2.2785 16.7867
 28 1 6.12136 15.4521 1.66955
 29 2 5.83113 14.6778 1.06131
 30 2 7.08581 15.5031 1.80518
 31 1 2.86139 10.2116 10.2111
 32 2 1.94146 10.4623 10.2174
 33 2 3.27733 10.9759 10.6555
 34 1 10.1742 7.70393 0.518753
 35 2 10.7239 7.55293 -0.297752
 36 2 10.8874 7.76203 1.29164
 37 1 0.521246 9.21788 7.21614
 38 2 1.22009 8.61321 6.87884
 39 2 0.225014 9.68804 6.37802
 40 1 14.9148 10.4282 4.36943
 41 2 14.0384 10.9247 4.44099
 42 2 15.618 11.1388 4.24543
 43 1 8.88474 10.7201 8.23737
 44 2 9.61592 10.035 8.25918
 45 2 9.30293 11.5505 7.76714
 46 1 13.1493 11.9352 14.5157
 47 2 13.4425 10.977 14.4663
 48 2 12.24 11.7904 14.8694
 49 1 5.72273 4.40762 5.36528
 50 2 5.4935 4.59055 4.41798
 51 2 5.74259 3.38681 5.50675
 52 1 1.72611 8.40624 14.3221
 53 2 2.24502 8.45203 13.4508
 54 2 0.802916 8.76316 14.2911
 55 1 11.9156 7.79924 2.55991
 56 2 12.7997 8.26948 2.595
 57 2 12.1477 6.98886 3.02724
 58 1 18.0443 15.528 8.48804
 59 2 18.0571 15.2255 7.52077
 60 2 17.341 14.9761 8.99939
 61 1 7.06399 8.12634 2.52118
 62 2 7.33575 7.39063 1.87267
 63 2 6.09689 8.18595 2.41478
 64 1 15.7763 2.72772 8.65587
 65 2 16.4041 2.80461 9.43401
 66 2 15.2148 2.00588 8.92367
 67 1 7.82711 6.25983 16.0312
 68 2 7.69968 5.59891 15.2501
 69 2 8.69163 6.70113 15.7525
 70 1 16.2904 6.64302 17.1865
 71 2 15.9033 5.97076 17.8262
 72 2 16.2955 6.2946 16.2609
 73 1 8.3659 9.97431 15.3165
 74 2 8.83364 9.10207 15.5455
 75 2 8.13414 10.5161 16.1065
 76 1 10.6542 4.63781 12.7567
 77 2 9.97796 5.30723 13.104
 78 2 10.1291 4.19923 12.0393
 79 1 12.5565 6.04717 4.62685
 80 2 12.6224 6.84008 5.25393
 81 2 11.7238 5.54887 4.66814
 82 1 0.174918 10.7783 10.4122
 83 2 0.128043 11.4609 11.1402
 84 2 -0.0190445 9.91613 10.8299
 85 1 10.6924 2.7465 -0.315237
 86 2 10.7112 3.54454 -0.999366
 87 2 10.9471 1.96998 -0.886791
 88 1 18.96 7.45119 16.9333
 89 2 18.6955 8.2503 17.559
 90 2 18.0907 6.99306 16.8481
 91 1 11.2125 9.3116 8.54456
 92 2 11.0418 8.74449 9.33572
 93 2 11.7344 10.0715 8.95732
 94 1 6.95096 4.26344 8.87721
 95 2 7.2296 4.20324 7.91281
 96 2 6.2025 3.63119 8.88932
 97 1 8.93972 13.2188 3.93506
 98 2 9.30851 12.4937 3.43593
 99 2 9.36382 13.0349 4.85878
 100 1 -0.584164 8.7915 2.34934
 101 2 0.0415365 7.94123 2.32271
 102 2 -0.204875 9.46472 3.01998
 103 1 6.84426 10.7847 17.5539
 104 2 6.89852 9.81749 17.6007
 105 2 6.75571 11.1613 18.4787
 106 1 13.4764 17.9595 0.080633
 107 2 12.4335 17.8922 0.035326
 108 2 13.7248 17.6165 -0.769428
 109 1 17.3441 14.0351 1.89619
 110 2 16.648 13.6456 1.29486
 111 2 17.1674 14.9885 1.79725
 112 1 2.93115 9.13768 3.90455
 113 2 2.88068 8.80666 4.87283
 114 2 2.84054 10.1206 4.04601
 115 1 7.45713 -0.441512 -1.45469
 116 2 6.67881 -0.887818 -0.948097
 117 2 8.30479 -0.796103 -0.882182
 118 1 12.173 7.61341 13.5623
 119 2 11.7984 7.5571 12.5927
 120 2 12.7181 6.77108 13.6305
 121 1 9.79854 12.5877 6.64959
 122 2 10.5744 12.008 6.6389
 123 2 10.0999 13.4669 6.92793
 124 1 5.3585 -1.30278 -0.0442761
 125 2 4.49871 -1.04219 -0.464822
 126 2 5.18045 -2.30783 0.18746
 127 1 3.36329 -0.611621 -1.5154
 128 2 3.23005 -1.40344 -2.20544
 129 2 2.49157 -0.21621 -1.26326
 130 1 8.73854 0.486855 2.01652
 131 2 9.00451 -0.173909 2.70262
 132 2 9.19584 0.235054 1.22426
 133 1 16.1225 11.7582 7.88604
 134 2 16.1352 12.1879 8.73345
 135 2 15.9566 10.8291 8.00085
 136 1 4.20542 9.95645 7.7689
 137 2 3.87623 10.0158 8.71217
 138 2 5.24637 9.93772 7.68629
 139 1 10.278 2.79964 2.56532
 140 2 9.74293 2.00314 2.62126
 141 2 10.4996 2.88435 1.63722
 142 1 2.0306 2.98837 11.8135
 143 2 2.70366 3.50338 12.3552
 144 2 1.17868 3.52038 11.9684
 145 1 6.77138 2.13718 13.7606
 146 2 7.04501 1.18072 13.6537
 147 2 6.1523 2.21689 14.4933
 148 1 3.62295 5.47204 6.64128
 149 2 4.407 5.0114 6.25716
 150 2 2.86104 4.96381 6.20222
 151 1 16.7155 6.31576 11.7575
 152 2 17.3475 6.85066 12.2815
 153 2 17.174 5.9316 10.9526
 154 1 4.84686 2.5826 1.02816
 155 2 5.31499 1.73818 1.24731
 156 2 5.09856 3.26831 1.73778
 157 1 12.2364 12.8373 12.0759
 158 2 11.7094 13.6399 12.2838
 159 2 12.6549 12.6911 13.0219
 160 1 12.7008 11.3568 9.54271
 161 2 13.6451 11.104 9.79052
 162 2 12.4053 11.8538 10.3522
 163 1 16.125 14.0866 9.59678
 164 2 15.2771 14.6535 9.46546
 165 2 16.1139 13.8084 10.5572
 166 1 4.84245 11.2979 15.7492
 167 2 3.94691 10.9818 15.9701
 168 2 5.44199 11.0594 16.5395
 169 1 6.40364 12.3489 4.7627
 170 2 7.15531 12.9475 4.71596
 171 2 5.63829 12.8155 4.29293
 172 1 3.53115 8.50059 12.2753
 173 2 4.09791 9.16978 12.7537
 174 2 3.09329 9.08873 11.6154
 175 1 14.1764 3.9106 11.6906
 176 2 13.8702 4.23765 10.8003
 177 2 13.9643 4.56546 12.4251
 178 1 4.65237 13.6686 3.39214
 179 2 5.18209 14.424 3.05364
 180 2 3.89309 13.604 2.71772
 181 1 14.0053 15.3684 6.02768
 182 2 13.1718 15.2705 5.48731
 183 2 14.0796 14.4969 6.59349
 184 1 13.5425 13.292 7.40033
 185 2 12.6566 13.3184 7.91692
 186 2 14.2461 12.8167 7.89537
 187 1 3.77021 12.4644 11.666
 188 2 4.13888 13.0578 10.9977
 189 2 4.46918 11.9122 12.132
 190 1 1.53512 5.62493 14.7943
 191 2 1.7274 6.61321 14.6426
 192 2 2.29514 5.08545 14.396
 193 1 7.87327 6.83621 8.17177
 194 2 7.64392 7.68952 7.68384
 195 2 7.00177 6.53291 8.52184
 196 1 14.9611 8.32762 11.5173
 197 2 15.5888 7.54972 11.703
 198 2 14.314 8.28078 12.3046
 199 1 14.8773 4.90735 3.92215
 200 2 13.9802 5.30233 4.23926
 201 2 15.4633 4.58255 4.67526
 202 1 4.93157 1.36405 11.9832
 203 2 5.48947 1.87856 12.6864
 204 2 4.33296 0.868449 12.6038
 205 1 1.03224 12.4699 14.885
 206 2 0.0913747 12.2639 15.1635
 207 2 1.55815 11.7766 15.3705
 208 1 5.61307 5.88953 12.606
 209 2 5.59407 6.2653 11.686
 210 2 5.62244 6.72894 13.2082
 211 1 5.6844 1.80472 5.44592
 212 2 4.81365 1.31765 5.50027
 213 2 6.38493 1.12986 5.50605
 214 1 13.4581 4.42794 8.89962
 215 2 13.8407 5.39293 9.06292
 216 2 14.2661 3.89192 8.71779
 217 1 14.1685 9.32928 -0.440071
 218 2 13.4208 8.66296 -0.595496
 219 2 14.2433 9.38866 0.542396
 220 1 12.0907 11.1831 5.90116
 221 2 12.6563 11.6981 6.45649
 222 2 12.387 10.2256 6.12992
 223 1 5.42346 6.85181 9.98786
 224 2 4.60967 6.30728 9.69375
 225 2 5.06009 7.7512 9.80362
 226 1 10.8964 7.45167 11.0232
 227 2 11.3223 6.60391 10.7448
 228 2 10.0616 7.15702 11.5274
 229 1 10.5679 4.33183 4.94862
 230 2 10.5446 3.80944 4.13367
 231 2 9.61576 4.59805 5.05712
 232 1 7.70423 4.62336 14.023
 233 2 7.57588 3.65883 13.8592
 234 2 6.95517 5.0758 13.5961
 235 1 5.99607 4.91437 2.62901
 236 2 6.91774 4.79106 2.35888
 237 2 5.7798 5.79388 2.19312
 238 1 2.37385 10.313 16.2521
 239 2 2.3772 9.96005 17.1768
 240 2 2.18559 9.48632 15.6398
 241 1 15.0786 13.0502 11.9475
 242 2 15.4671 12.8269 12.8472
 243 2 14.0863 13.2589 12.0629
 244 1 10.6282 11.1031 3.17345
 245 2 10.9993 11.2473 4.08654
 246 2 10.3286 10.2035 3.169
 247 1 11.2527 0.43665 -2.19291
 248 2 10.6338 0.53999 -2.98161
 249 2 12.0904 0.991744 -2.24209
 250 1 13.888 7.0147 9.32438
 251 2 14.2836 7.41299 8.48055
 252 2 14.5242 7.11922 10.1096
 253 1 5.32194 10.5339 12.7673
 254 2 6.25352 10.1835 12.5955
 255 2 5.26465 10.4496 13.7546
 256 1 2.9578 5.10081 9.36342
 257 2 3.27382 5.07842 8.37483
 258 2 3.40293 4.20794 9.55398
 259 1 13.6897 16.3279 -2.70967
 260 2 14.5287 16.0707 -2.21292
 261 2 13.8876 17.2552 -3.1674
 262 1 7.94486 9.79509 12.6936
 263 2 8.09502 10.1272 13.64
 264 2 8.34741 10.4766 12.0758
 265 1 5.25561 8.10833 14.6536
 266 2 6.17879 8.41803 14.9519
 267 2 4.64455 7.98829 15.4308
 268 1 9.39758 3.59364 10.5295
 269 2 8.58581 3.82556 10.0256
 270 2 9.34914 2.57559 10.5394
 271 1 2.04863 11.8544 3.77488
 272 2 2.48888 12.0608 4.65139
 273 2 1.93319 12.7458 3.32219
 274 1 1.07294 0.9676 -1.42462
 275 2 1.12538 1.31763 -0.488678
 276 2 1.53782 1.69393 -1.96382
 277 1 -0.365031 2.67184 2.49055
 278 2 -0.911531 2.69152 1.67055
 279 2 -0.421119 3.53973 2.95497
 280 1 10.6953 11.7571 0.497434
 281 2 10.115 11.093 0.0677003
 282 2 10.6188 11.6446 1.48875
 283 1 8.89842 7.23432 12.7289
 284 2 8.66636 8.17762 12.8695
 285 2 8.09542 6.9729 12.1989
 286 1 16.164 1.28983 4.5866
 287 2 15.2872 0.969162 4.9751
 288 2 15.9515 1.33507 3.63593
 289 1 3.07897 12.1617 6.15638
 290 2 2.44339 12.0717 6.9685
 291 2 3.73197 11.4671 6.32251
 292 1 2.92424 8.3077 6.28734
 293 2 3.28663 7.38491 6.25671
 294 2 3.50241 8.8597 6.9337
 295 1 3.59903 4.29826 13.5712
 296 2 3.92096 3.62708 14.3065
 297 2 4.32906 5.00366 13.4011
 298 1 13.9924 0.922355 9.4549
 299 2 13.3394 0.493838 8.78427
 300 2 13.6672 0.85134 10.3905
 301 1 9.57508 0.775647 10.5431
 302 2 10.1239 0.260122 9.86454
 303 2 8.85886 0.0792027 10.5774
 304 1 9.81943 14.1292 -0.318832
 305 2 10.2438 13.1973 -0.215978
 306 2 10.4131 14.6384 -0.926324
 307 3 11.22 2.4792 7.78523
 308 2 12.1445 2.11827 7.29647
 309 2 10.3941 2.08451 7.209
 310 2 11.4194 2.27648 8.90613
 311 4 11.1495 -0.0759926 8.12177
 312 5 11.1632 3.97156 7.65671
 313 2 10.2815 4.43282 7.96913
 314 2 11.1344 4.19349 6.65019
 315 2 12.0424 4.37818 8.12635
 316 1 12.3733 8.40203 6.26658
 317 2 11.4273 8.45626 5.78141
 318 2 12.3126 8.46511 7.2564
 319 1 8.12622 19.7422 6.16985
 320 2 7.16698 19.7213 5.78709
 321 2 8.18396 20.5848 6.71051
 322 1 6.78301 10.0559 6.60123
 323 2 6.644 10.8898 5.99551
 324 2 7.53788 10.2471 7.20513
 325 1 7.74315 8.07865 5.0832
 326 2 7.33698 8.05565 4.19381
 327 2 7.42392 8.87145 5.57793
