
327 atoms
5 atom types
   0.0000000000   14.9800000000 xlo xhi
   0.0000000000   14.9800000000 ylo yhi
   0.0000000000   14.9800000000 zlo zhi
   0.0000000000    0.0000000000    0.0000000000 xy xz yz

Atoms # atomic

     1      1   -1.0542400000    5.4156500000   -1.1486600000
     2      2   -1.3674800000    4.8017700000   -0.4698340000
     3      2   -0.1358890000    5.7014200000   -0.7610150000
     4      1    4.2850100000    2.7347600000    9.3241200000
     5      2    4.4395300000    2.3555100000   10.1984000000
     6      2    3.8027200000    2.0108100000    8.8699200000
     7      1    1.4477500000    3.8391600000    6.1457300000
     8      2    1.1577600000    3.5090500000    7.0486700000
     9      2    1.3400300000    3.0870600000    5.4811500000
    10      1    7.7128100000   13.9834000000   11.0179000000
    11      2    6.8481700000   14.2004000000   10.6351000000
    12      2    7.6016600000   14.2377000000   11.9930000000
    13      1   18.4039000000   15.3516000000    5.8258500000
    14      2   18.6284000000   14.6345000000    5.2191800000
    15      2   17.6512000000   15.8521000000    5.2830900000
    16      1    8.8049000000   11.4991000000   10.9367000000
    17      2    8.5438500000   11.2494000000    9.9988100000
    18      2    8.3859800000   12.3883000000   10.9188000000
    19      1   10.4342000000    8.7125500000   19.6184000000
    20      2    9.4354400000    8.4684900000   19.7223000000
    21      2   10.8174000000    8.1309800000   18.9031000000
    22      1    5.0733800000   14.4353000000    9.9618100000
    23      2    4.4510000000   14.8771000000    9.2978300000
    24      2    5.0645900000   15.0270000000   10.7991000000
    25      1    1.7116200000    1.7335200000   16.3463000000
    26      2    2.5021300000    2.3519900000   16.3247000000
    27      2    0.9299450000    2.2785000000   16.7867000000
    28      1    6.1213600000   15.4521000000    1.6695500000
    29      2    5.8311300000   14.6778000000    1.0613100000
    30      2    7.0858100000   15.5031000000    1.8051800000
    31      1    2.8613900000   10.2116000000   10.2111000000
    32      2    1.9414600000   10.4623000000   10.2174000000
    33      2    3.2773300000   10.9759000000   10.6555000000
    34      1   10.1742000000    7.7039300000    0.5187530000
    35      2   10.7239000000    7.5529300000   -0.2977520000
    36      2   10.8874000000    7.7620300000    1.2916400000
    37      1    0.5212460000    9.2178800000    7.2161400000
    38      2    1.2200900000    8.6132100000    6.8788400000
    39      2    0.2250140000    9.6880400000    6.3780200000
    40      1   14.9148000000   10.4282000000    4.3694300000
    41      2   14.0384000000   10.9247000000    4.4409900000
    42      2   15.6180000000   11.1388000000    4.2454300000
    43      1    8.8847400000   10.7201000000    8.2373700000
    44      2    9.6159200000   10.0350000000    8.2591800000
    45      2    9.3029300000   11.5505000000    7.7671400000
    46      1   13.1493000000   11.9352000000   14.5157000000
    47      2   13.4425000000   10.9770000000   14.4663000000
    48      2   12.2400000000   11.7904000000   14.8694000000
    49      1    5.7227300000    4.4076200000    5.3652800000
    50      2    5.4935000000    4.5905500000    4.4179800000
    51      2    5.7425900000    3.3868100000    5.5067500000
    52      1    1.7261100000    8.4062400000   14.3221000000
    53      2    2.2450200000    8.4520300000   13.4508000000
    54      2    0.8029160000    8.7631600000   14.2911000000
    55      1   11.9156000000    7.7992400000    2.5599100000
    56      2   12.7997000000    8.2694800000    2.5950000000
    57      2   12.1477000000    6.9888600000    3.0272400000
    58      1   18.0443000000   15.5280000000    8.4880400000
    59      2   18.0571000000   15.2255000000    7.5207700000
    60      2   17.3410000000   14.9761000000    8.9993900000
    61      1    7.0639900000    8.1263400000    2.5211800000
    62      2    7.3357500000    7.3906300000    1.8726700000
    63      2    6.0968900000    8.1859500000    2.4147800000
    64      1   15.7763000000    2.7277200000    8.6558700000
    65      2   16.4041000000    2.8046100000    9.4340100000
    66      2   15.2148000000    2.0058800000    8.9236700000
    67      1    7.8271100000    6.2598300000   16.0312000000
    68      2    7.6996800000    5.5989100000   15.2501000000
    69      2    8.6916300000    6.7011300000   15.7525000000
    70      1   16.2904000000    6.6430200000   17.1865000000
    71      2   15.9033000000    5.9707600000   17.8262000000
    72      2   16.2955000000    6.2946000000   16.2609000000
    73      1    8.3659000000    9.9743100000   15.3165000000
    74      2    8.8336400000    9.1020700000   15.5455000000
    75      2    8.1341400000   10.5161000000   16.1065000000
    76      1   10.6542000000    4.6378100000   12.7567000000
    77      2    9.9779600000    5.3072300000   13.1040000000
    78      2   10.1291000000    4.1992300000   12.0393000000
    79      1   12.5565000000    6.0471700000    4.6268500000
    80      2   12.6224000000    6.8400800000    5.2539300000
    81      2   11.7238000000    5.5488700000    4.6681400000
    82      1    0.1749180000   10.7783000000   10.4122000000
    83      2    0.1280430000   11.4609000000   11.1402000000
    84      2   -0.0190445000    9.9161300000   10.8299000000
    85      1   10.6924000000    2.7465000000   -0.3152370000
    86      2   10.7112000000    3.5445400000   -0.9993660000
    87      2   10.9471000000    1.9699800000   -0.8867910000
    88      1   18.9600000000    7.4511900000   16.9333000000
    89      2   18.6955000000    8.2503000000   17.5590000000
    90      2   18.0907000000    6.9930600000   16.8481000000
    91      1   11.2125000000    9.3116000000    8.5445600000
    92      2   11.0418000000    8.7444900000    9.3357200000
    93      2   11.7344000000   10.0715000000    8.9573200000
    94      1    6.9509600000    4.2634400000    8.8772100000
    95      2    7.2296000000    4.2032400000    7.9128100000
    96      2    6.2025000000    3.6311900000    8.8893200000
    97      1    8.9397200000   13.2188000000    3.9350600000
    98      2    9.3085100000   12.4937000000    3.4359300000
    99      2    9.3638200000   13.0349000000    4.8587800000
   100      1   -0.5841640000    8.7915000000    2.3493400000
   101      2    0.0415365000    7.9412300000    2.3227100000
   102      2   -0.2048750000    9.4647200000    3.0199800000
   103      1    6.8442600000   10.7847000000   17.5539000000
   104      2    6.8985200000    9.8174900000   17.6007000000
   105      2    6.7557100000   11.1613000000   18.4787000000
   106      1   13.4764000000   17.9595000000    0.0806330000
   107      2   12.4335000000   17.8922000000    0.0353260000
   108      2   13.7248000000   17.6165000000   -0.7694280000
   109      1   17.3441000000   14.0351000000    1.8961900000
   110      2   16.6480000000   13.6456000000    1.2948600000
   111      2   17.1674000000   14.9885000000    1.7972500000
   112      1    2.9311500000    9.1376800000    3.9045500000
   113      2    2.8806800000    8.8066600000    4.8728300000
   114      2    2.8405400000   10.1206000000    4.0460100000
   115      1    7.4571300000   -0.4415120000   -1.4546900000
   116      2    6.6788100000   -0.8878180000   -0.9480970000
   117      2    8.3047900000   -0.7961030000   -0.8821820000
   118      1   12.1730000000    7.6134100000   13.5623000000
   119      2   11.7984000000    7.5571000000   12.5927000000
   120      2   12.7181000000    6.7710800000   13.6305000000
   121      1    9.7985400000   12.5877000000    6.6495900000
   122      2   10.5744000000   12.0080000000    6.6389000000
   123      2   10.0999000000   13.4669000000    6.9279300000
   124      1    5.3585000000   -1.3027800000   -0.0442761000
   125      2    4.4987100000   -1.0421900000   -0.4648220000
   126      2    5.1804500000   -2.3078300000    0.1874600000
   127      1    3.3632900000   -0.6116210000   -1.5154000000
   128      2    3.2300500000   -1.4034400000   -2.2054400000
   129      2    2.4915700000   -0.2162100000   -1.2632600000
   130      1    8.7385400000    0.4868550000    2.0165200000
   131      2    9.0045100000   -0.1739090000    2.7026200000
   132      2    9.1958400000    0.2350540000    1.2242600000
   133      1   16.1225000000   11.7582000000    7.8860400000
   134      2   16.1352000000   12.1879000000    8.7334500000
   135      2   15.9566000000   10.8291000000    8.0008500000
   136      1    4.2054200000    9.9564500000    7.7689000000
   137      2    3.8762300000   10.0158000000    8.7121700000
   138      2    5.2463700000    9.9377200000    7.6862900000
   139      1   10.2780000000    2.7996400000    2.5653200000
   140      2    9.7429300000    2.0031400000    2.6212600000
   141      2   10.4996000000    2.8843500000    1.6372200000
   142      1    2.0306000000    2.9883700000   11.8135000000
   143      2    2.7036600000    3.5033800000   12.3552000000
   144      2    1.1786800000    3.5203800000   11.9684000000
   145      1    6.7713800000    2.1371800000   13.7606000000
   146      2    7.0450100000    1.1807200000   13.6537000000
   147      2    6.1523000000    2.2168900000   14.4933000000
   148      1    3.6229500000    5.4720400000    6.6412800000
   149      2    4.4070000000    5.0114000000    6.2571600000
   150      2    2.8610400000    4.9638100000    6.2022200000
   151      1   16.7155000000    6.3157600000   11.7575000000
   152      2   17.3475000000    6.8506600000   12.2815000000
   153      2   17.1740000000    5.9316000000   10.9526000000
   154      1    4.8468600000    2.5826000000    1.0281600000
   155      2    5.3149900000    1.7381800000    1.2473100000
   156      2    5.0985600000    3.2683100000    1.7377800000
   157      1   12.2364000000   12.8373000000   12.0759000000
   158      2   11.7094000000   13.6399000000   12.2838000000
   159      2   12.6549000000   12.6911000000   13.0219000000
   160      1   12.7008000000   11.3568000000    9.5427100000
   161      2   13.6451000000   11.1040000000    9.7905200000
   162      2   12.4053000000   11.8538000000   10.3522000000
   163      1   16.1250000000   14.0866000000    9.5967800000
   164      2   15.2771000000   14.6535000000    9.4654600000
   165      2   16.1139000000   13.8084000000   10.5572000000
   166      1    4.8424500000   11.2979000000   15.7492000000
   167      2    3.9469100000   10.9818000000   15.9701000000
   168      2    5.4419900000   11.0594000000   16.5395000000
   169      1    6.4036400000   12.3489000000    4.7627000000
   170      2    7.1553100000   12.9475000000    4.7159600000
   171      2    5.6382900000   12.8155000000    4.2929300000
   172      1    3.5311500000    8.5005900000   12.2753000000
   173      2    4.0979100000    9.1697800000   12.7537000000
   174      2    3.0932900000    9.0887300000   11.6154000000
   175      1   14.1764000000    3.9106000000   11.6906000000
   176      2   13.8702000000    4.2376500000   10.8003000000
   177      2   13.9643000000    4.5654600000   12.4251000000
   178      1    4.6523700000   13.6686000000    3.3921400000
   179      2    5.1820900000   14.4240000000    3.0536400000
   180      2    3.8930900000   13.6040000000    2.7177200000
   181      1   14.0053000000   15.3684000000    6.0276800000
   182      2   13.1718000000   15.2705000000    5.4873100000
   183      2   14.0796000000   14.4969000000    6.5934900000
   184      1   13.5425000000   13.2920000000    7.4003300000
   185      2   12.6566000000   13.3184000000    7.9169200000
   186      2   14.2461000000   12.8167000000    7.8953700000
   187      1    3.7702100000   12.4644000000   11.6660000000
   188      2    4.1388800000   13.0578000000   10.9977000000
   189      2    4.4691800000   11.9122000000   12.1320000000
   190      1    1.5351200000    5.6249300000   14.7943000000
   191      2    1.7274000000    6.6132100000   14.6426000000
   192      2    2.2951400000    5.0854500000   14.3960000000
   193      1    7.8732700000    6.8362100000    8.1717700000
   194      2    7.6439200000    7.6895200000    7.6838400000
   195      2    7.0017700000    6.5329100000    8.5218400000
   196      1   14.9611000000    8.3276200000   11.5173000000
   197      2   15.5888000000    7.5497200000   11.7030000000
   198      2   14.3140000000    8.2807800000   12.3046000000
   199      1   14.8773000000    4.9073500000    3.9221500000
   200      2   13.9802000000    5.3023300000    4.2392600000
   201      2   15.4633000000    4.5825500000    4.6752600000
   202      1    4.9315700000    1.3640500000   11.9832000000
   203      2    5.4894700000    1.8785600000   12.6864000000
   204      2    4.3329600000    0.8684490000   12.6038000000
   205      1    1.0322400000   12.4699000000   14.8850000000
   206      2    0.0913747000   12.2639000000   15.1635000000
   207      2    1.5581500000   11.7766000000   15.3705000000
   208      1    5.6130700000    5.8895300000   12.6060000000
   209      2    5.5940700000    6.2653000000   11.6860000000
   210      2    5.6224400000    6.7289400000   13.2082000000
   211      1    5.6844000000    1.8047200000    5.4459200000
   212      2    4.8136500000    1.3176500000    5.5002700000
   213      2    6.3849300000    1.1298600000    5.5060500000
   214      1   13.4581000000    4.4279400000    8.8996200000
   215      2   13.8407000000    5.3929300000    9.0629200000
   216      2   14.2661000000    3.8919200000    8.7177900000
   217      1   14.1685000000    9.3292800000   -0.4400710000
   218      2   13.4208000000    8.6629600000   -0.5954960000
   219      2   14.2433000000    9.3886600000    0.5423960000
   220      1   12.0907000000   11.1831000000    5.9011600000
   221      2   12.6563000000   11.6981000000    6.4564900000
   222      2   12.3870000000   10.2256000000    6.1299200000
   223      1    5.4234600000    6.8518100000    9.9878600000
   224      2    4.6096700000    6.3072800000    9.6937500000
   225      2    5.0600900000    7.7512000000    9.8036200000
   226      1   10.8964000000    7.4516700000   11.0232000000
   227      2   11.3223000000    6.6039100000   10.7448000000
   228      2   10.0616000000    7.1570200000   11.5274000000
   229      1   10.5679000000    4.3318300000    4.9486200000
   230      2   10.5446000000    3.8094400000    4.1336700000
   231      2    9.6157600000    4.5980500000    5.0571200000
   232      1    7.7042300000    4.6233600000   14.0230000000
   233      2    7.5758800000    3.6588300000   13.8592000000
   234      2    6.9551700000    5.0758000000   13.5961000000
   235      1    5.9960700000    4.9143700000    2.6290100000
   236      2    6.9177400000    4.7910600000    2.3588800000
   237      2    5.7798000000    5.7938800000    2.1931200000
   238      1    2.3738500000   10.3130000000   16.2521000000
   239      2    2.3772000000    9.9600500000   17.1768000000
   240      2    2.1855900000    9.4863200000   15.6398000000
   241      1   15.0786000000   13.0502000000   11.9475000000
   242      2   15.4671000000   12.8269000000   12.8472000000
   243      2   14.0863000000   13.2589000000   12.0629000000
   244      1   10.6282000000   11.1031000000    3.1734500000
   245      2   10.9993000000   11.2473000000    4.0865400000
   246      2   10.3286000000   10.2035000000    3.1690000000
   247      1   11.2527000000    0.4366500000   -2.1929100000
   248      2   10.6338000000    0.5399900000   -2.9816100000
   249      2   12.0904000000    0.9917440000   -2.2420900000
   250      1   13.8880000000    7.0147000000    9.3243800000
   251      2   14.2836000000    7.4129900000    8.4805500000
   252      2   14.5242000000    7.1192200000   10.1096000000
   253      1    5.3219400000   10.5339000000   12.7673000000
   254      2    6.2535200000   10.1835000000   12.5955000000
   255      2    5.2646500000   10.4496000000   13.7546000000
   256      1    2.9578000000    5.1008100000    9.3634200000
   257      2    3.2738200000    5.0784200000    8.3748300000
   258      2    3.4029300000    4.2079400000    9.5539800000
   259      1   13.6897000000   16.3279000000   -2.7096700000
   260      2   14.5287000000   16.0707000000   -2.2129200000
   261      2   13.8876000000   17.2552000000   -3.1674000000
   262      1    7.9448600000    9.7950900000   12.6936000000
   263      2    8.0950200000   10.1272000000   13.6400000000
   264      2    8.3474100000   10.4766000000   12.0758000000
   265      1    5.2556100000    8.1083300000   14.6536000000
   266      2    6.1787900000    8.4180300000   14.9519000000
   267      2    4.6445500000    7.9882900000   15.4308000000
   268      1    9.3975800000    3.5936400000   10.5295000000
   269      2    8.5858100000    3.8255600000   10.0256000000
   270      2    9.3491400000    2.5755900000   10.5394000000
   271      1    2.0486300000   11.8544000000    3.7748800000
   272      2    2.4888800000   12.0608000000    4.6513900000
   273      2    1.9331900000   12.7458000000    3.3221900000
   274      1    1.0729400000    0.9676000000   -1.4246200000
   275      2    1.1253800000    1.3176300000   -0.4886780000
   276      2    1.5378200000    1.6939300000   -1.9638200000
   277      1   -0.3650310000    2.6718400000    2.4905500000
   278      2   -0.9115310000    2.6915200000    1.6705500000
   279      2   -0.4211190000    3.5397300000    2.9549700000
   280      1   10.6953000000   11.7571000000    0.4974340000
   281      2   10.1150000000   11.0930000000    0.0677003000
   282      2   10.6188000000   11.6446000000    1.4887500000
   283      1    8.8984200000    7.2343200000   12.7289000000
   284      2    8.6663600000    8.1776200000   12.8695000000
   285      2    8.0954200000    6.9729000000   12.1989000000
   286      1   16.1640000000    1.2898300000    4.5866000000
   287      2   15.2872000000    0.9691620000    4.9751000000
   288      2   15.9515000000    1.3350700000    3.6359300000
   289      1    3.0789700000   12.1617000000    6.1563800000
   290      2    2.4433900000   12.0717000000    6.9685000000
   291      2    3.7319700000   11.4671000000    6.3225100000
   292      1    2.9242400000    8.3077000000    6.2873400000
   293      2    3.2866300000    7.3849100000    6.2567100000
   294      2    3.5024100000    8.8597000000    6.9337000000
   295      1    3.5990300000    4.2982600000   13.5712000000
   296      2    3.9209600000    3.6270800000   14.3065000000
   297      2    4.3290600000    5.0036600000   13.4011000000
   298      1   13.9924000000    0.9223550000    9.4549000000
   299      2   13.3394000000    0.4938380000    8.7842700000
   300      2   13.6672000000    0.8513400000   10.3905000000
   301      1    9.5750800000    0.7756470000   10.5431000000
   302      2   10.1239000000    0.2601220000    9.8645400000
   303      2    8.8588600000    0.0792027000   10.5774000000
   304      1    9.8194300000   14.1292000000   -0.3188320000
   305      2   10.2438000000   13.1973000000   -0.2159780000
   306      2   10.4131000000   14.6384000000   -0.9263240000
   307      3   11.2200000000    2.4792000000    7.7852300000
   308      2   12.1445000000    2.1182700000    7.2964700000
   309      2   10.3941000000    2.0845100000    7.2090000000
   310      2   11.4194000000    2.2764800000    8.9061300000
   311      4   11.1495000000   -0.0759926000    8.1217700000
   312      5   11.1632000000    3.9715600000    7.6567100000
   313      2   10.2815000000    4.4328200000    7.9691300000
   314      2   11.1344000000    4.1934900000    6.6501900000
   315      2   12.0424000000    4.3781800000    8.1263500000
   316      1   12.3733000000    8.4020300000    6.2665800000
   317      2   11.4273000000    8.4562600000    5.7814100000
   318      2   12.3126000000    8.4651100000    7.2564000000
   319      1    8.1262200000   19.7422000000    6.1698500000
   320      2    7.1669800000   19.7213000000    5.7870900000
   321      2    8.1839600000   20.5848000000    6.7105100000
   322      1    6.7830100000   10.0559000000    6.6012300000
   323      2    6.6440000000   10.8898000000    5.9955100000
   324      2    7.5378800000   10.2471000000    7.2051300000
   325      1    7.7431500000    8.0786500000    5.0832000000
   326      2    7.3369800000    8.0556500000    4.1938100000
   327      2    7.4239200000    8.8714500000    5.5779300000
