 Entering Gaussian System, Link 0=g16
 Input=nh3.gjf
 Output=nh3.log
 Initial command:
 /home/anmol/Softwares//g16/l1.exe "/home/anmol/scrh/Gau-401436.inp" -scrdir="/home/anmol/scrh/"
 Entering Link 1 = /home/anmol/Softwares//g16/l1.exe PID=    401438.
  
 Copyright (c) 1988,1990,1992,1993,1995,1998,2003,2009,2016,
            Gaussian, Inc.  All Rights Reserved.
  
 This is part of the Gaussian(R) 16 program.  It is based on
 the Gaussian(R) 09 system (copyright 2009, Gaussian, Inc.),
 the Gaussian(R) 03 system (copyright 2003, Gaussian, Inc.),
 the Gaussian(R) 98 system (copyright 1998, Gaussian, Inc.),
 the Gaussian(R) 94 system (copyright 1995, Gaussian, Inc.),
 the Gaussian 92(TM) system (copyright 1992, Gaussian, Inc.),
 the Gaussian 90(TM) system (copyright 1990, Gaussian, Inc.),
 the Gaussian 88(TM) system (copyright 1988, Gaussian, Inc.),
 the Gaussian 86(TM) system (copyright 1986, Carnegie Mellon
 University), and the Gaussian 82(TM) system (copyright 1983,
 Carnegie Mellon University). Gaussian is a federally registered
 trademark of Gaussian, Inc.
  
 This software contains proprietary and confidential information,
 including trade secrets, belonging to Gaussian, Inc.
  
 This software is provided under written license and may be
 used, copied, transmitted, or stored only in accord with that
 written license.
  
 The following legend is applicable only to US Government
 contracts under FAR:
  
                    RESTRICTED RIGHTS LEGEND
  
 Use, reproduction and disclosure by the US Government is
 subject to restrictions as set forth in subparagraphs (a)
 and (c) of the Commercial Computer Software - Restricted
 Rights clause in FAR 52.227-19.
  
 Gaussian, Inc.
 340 Quinnipiac St., Bldg. 40, Wallingford CT 06492
  
  
 ---------------------------------------------------------------
 Warning -- This program may not be used in any manner that
 competes with the business of Gaussian, Inc. or will provide
 assistance to any competitor of Gaussian, Inc.  The licensee
 of this program is prohibited from giving any competitor of
 Gaussian, Inc. access to this program.  By using this program,
 the user acknowledges that Gaussian, Inc. is engaged in the
 business of creating and licensing software in the field of
 computational chemistry and represents and warrants to the
 licensee that it is not a competitor of Gaussian, Inc. and that
 it will not use this program in any manner prohibited above.
 ---------------------------------------------------------------
  

 Cite this work as:
 Gaussian 16, Revision A.03,
 M. J. Frisch, G. W. Trucks, H. B. Schlegel, G. E. Scuseria, 
 M. A. Robb, J. R. Cheeseman, G. Scalmani, V. Barone, 
 G. A. Petersson, H. Nakatsuji, X. Li, M. Caricato, A. V. Marenich, 
 J. Bloino, B. G. Janesko, R. Gomperts, B. Mennucci, H. P. Hratchian, 
 J. V. Ortiz, A. F. Izmaylov, J. L. Sonnenberg, D. Williams-Young, 
 F. Ding, F. Lipparini, F. Egidi, J. Goings, B. Peng, A. Petrone, 
 T. Henderson, D. Ranasinghe, V. G. Zakrzewski, J. Gao, N. Rega, 
 G. Zheng, W. Liang, M. Hada, M. Ehara, K. Toyota, R. Fukuda, 
 J. Hasegawa, M. Ishida, T. Nakajima, Y. Honda, O. Kitao, H. Nakai, 
 T. Vreven, K. Throssell, J. A. Montgomery, Jr., J. E. Peralta, 
 F. Ogliaro, M. J. Bearpark, J. J. Heyd, E. N. Brothers, K. N. Kudin, 
 V. N. Staroverov, T. A. Keith, R. Kobayashi, J. Normand, 
 K. Raghavachari, A. P. Rendell, J. C. Burant, S. S. Iyengar, 
 J. Tomasi, M. Cossi, J. M. Millam, M. Klene, C. Adamo, R. Cammi, 
 J. W. Ochterski, R. L. Martin, K. Morokuma, O. Farkas, 
 J. B. Foresman, and D. J. Fox, Gaussian, Inc., Wallingford CT, 2016.
 
 ******************************************
 Gaussian 16:  ES64L-G16RevA.03 25-Dec-2016
                22-Jul-2024 
 ******************************************
 %nprocshared=10
 Will use up to   10 processors via shared memory.
 %mem=10GB
 --------------------------------------------------------------------
 # opt=calcfc freq=noraman 6-31+g(d,p) scrf=(smd,solvent=water) m062x
 --------------------------------------------------------------------
 1/10=4,18=20,19=15,26=3,38=1/1,3;
 2/9=110,12=2,17=6,18=5,40=1/2;
 3/5=1,6=6,7=111,11=2,25=1,30=1,70=32201,71=2,72=1,74=-55,140=1/1,2,3;
 4//1;
 5/5=2,38=5,53=1/2;
 8/6=4,10=90,11=11/1;
 11/6=1,8=1,9=11,15=111,16=1/1,2,10;
 10/6=1,13=1/2;
 6/7=2,8=2,9=2,10=2,28=1/1;
 7/10=1,18=20,25=1/1,2,3,16;
 1/10=4,18=20,19=15,26=3/3(2);
 2/9=110/2;
 99//99;
 2/9=110/2;
 3/5=1,6=6,7=111,11=2,25=1,30=1,70=32205,71=1,72=1,74=-55/1,2,3;
 4/5=5,16=3,69=1/1;
 5/5=2,38=5,53=1/2;
 7//1,2,3,16;
 1/18=20,19=15,26=3/3(-5);
 2/9=110/2;
 6/7=2,8=2,9=2,10=2,19=2,28=1/1;
 99/9=1/99;
 -------------------
 Title Card Required
 -------------------
 Symbolic Z-matrix:
 Charge =  0 Multiplicity = 1
 N                    -0.00002  -0.00001   0.11593 
 H                     0.78466  -0.50745  -0.27048 
 H                     0.04724   0.93317  -0.27049 
 H                    -0.83179  -0.4257   -0.27053 
 

 GradGradGradGradGradGradGradGradGradGradGradGradGradGradGradGradGradGrad
 Berny optimization.
 Initialization pass.
                           ----------------------------
                           !    Initial Parameters    !
                           ! (Angstroms and Degrees)  !
 --------------------------                            --------------------------
 ! Name  Definition              Value          Derivative Info.                !
 --------------------------------------------------------------------------------
 ! R1    R(1,2)                  1.0112         calculate D2E/DX2 analytically  !
 ! R2    R(1,3)                  1.0111         calculate D2E/DX2 analytically  !
 ! R3    R(1,4)                  1.0111         calculate D2E/DX2 analytically  !
 ! A1    A(2,1,3)              106.31           calculate D2E/DX2 analytically  !
 ! A2    A(2,1,4)              106.3205         calculate D2E/DX2 analytically  !
 ! A3    A(3,1,4)              106.3155         calculate D2E/DX2 analytically  !
 ! D1    D(2,1,4,3)           -112.9926         calculate D2E/DX2 analytically  !
 --------------------------------------------------------------------------------
 Trust Radius=3.00D-01 FncErr=1.00D-07 GrdErr=1.00D-06 EigMax=2.50D+02 EigMin=1.00D-04
 Number of steps in this run=     20 maximum allowed number of steps=    100.
 GradGradGradGradGradGradGradGradGradGradGradGradGradGradGradGradGradGrad

                          Input orientation:                          
 ---------------------------------------------------------------------
 Center     Atomic      Atomic             Coordinates (Angstroms)
 Number     Number       Type             X           Y           Z
 ---------------------------------------------------------------------
      1          7           0       -0.000016   -0.000005    0.115929
      2          1           0        0.784657   -0.507445   -0.270480
      3          1           0        0.047238    0.933174   -0.270490
      4          1           0       -0.831786   -0.425697   -0.270531
 ---------------------------------------------------------------------
                    Distance matrix (angstroms):
                    1          2          3          4
     1  N    0.000000
     2  H    1.011197   0.000000
     3  H    1.011126   1.618385   0.000000
     4  H    1.011141   1.618509   1.618398   0.000000
 Stoichiometry    H3N
 Framework group  C1[X(H3N)]
 Deg. of freedom     6
 Full point group                 C1      NOp   1
 Largest Abelian subgroup         C1      NOp   1
 Largest concise Abelian subgroup C1      NOp   1
                         Standard orientation:                         
 ---------------------------------------------------------------------
 Center     Atomic      Atomic             Coordinates (Angstroms)
 Number     Number       Type             X           Y           Z
 ---------------------------------------------------------------------
      1          7           0        0.000016   -0.000005   -0.115929
      2          1           0       -0.785042   -0.506850    0.270480
      3          1           0       -0.046531    0.933210    0.270490
      4          1           0        0.831463   -0.426327    0.270531
 ---------------------------------------------------------------------
 Rotational constants (GHZ):         298.8472160         298.8020011         191.4449073
 Standard basis: 6-31+G(d,p) (6D, 7F)
 There are    34 symmetry adapted cartesian basis functions of A   symmetry.
 There are    34 symmetry adapted basis functions of A   symmetry.
    34 basis functions,    53 primitive gaussians,    34 cartesian basis functions
     5 alpha electrons        5 beta electrons
       nuclear repulsion energy        11.9710387640 Hartrees.
 NAtoms=    4 NActive=    4 NUniq=    4 SFac= 1.00D+00 NAtFMM=   60 NAOKFM=F Big=F
 Integral buffers will be    131072 words long.
 Raffenetti 2 integral format.
 Two-electron integral symmetry is turned on.
 Force inversion solution in PCM.
 ------------------------------------------------------------------------------
 Polarizable Continuum Model (PCM)
 =================================
 Model                : PCM.
 Atomic radii         : SMD-Coulomb.
 Polarization charges : Total charges.
 Charge compensation  : None.
 Solution method      : Matrix inversion.
 Cavity type          : VdW (van der Waals Surface) (Alpha=1.000).
 Cavity algorithm     : GePol (No added spheres)
                        Default sphere list used, NSphG=    4.
                        Lebedev-Laikov grids with approx.  5.0 points / Ang**2.
                        Smoothing algorithm: York/Karplus (Gamma=1.0000).
                        Polarization charges: spherical gaussians, with
                                              point-specific exponents (IZeta= 3).
                        Self-potential: point-specific (ISelfS= 7).
                        Self-field    : sphere-specific E.n sum rule (ISelfD= 2).
 1st derivatives      : Analytical E(r).r(x)/FMM algorithm (CHGder, D1EAlg=3).
                        Cavity 1st derivative terms included.
 2nd derivatives      : Analytical E(r).r(xy)/FMM algorithm (CHGder, D2EAlg=3).
                        Cavity 2nd derivative terms included.
 Solvent              : Water, Eps=  78.355300 Eps(inf)=   1.777849
 ------------------------------------------------------------------------------
 Spheres list:
 ISph  on   Nord     Re0    Alpha      Xe            Ye            Ze
    1   N      1    1.8900  1.000      0.000016     -0.000005     -0.115929
    2   H      2    1.2000  1.000     -0.785042     -0.506850      0.270480
    3   H      3    1.2000  1.000     -0.046531      0.933210      0.270490
    4   H      4    1.2000  1.000      0.831463     -0.426327      0.270531
 ------------------------------------------------------------------------------
 ------------------------------------------------------------------------------
 Atomic radii for non-electrostatic terms: SMD-CDS.
 ------------------------------------------------------------------------------
 Nuclear repulsion after PCM non-electrostatic terms =       11.9744029323 Hartrees.
 One-electron integrals computed using PRISM.
 NBasis=    34 RedAO= T EigKep=  1.38D-02  NBF=    34
 NBsUse=    34 1.00D-06 EigRej= -1.00D+00 NBFU=    34
 ExpMin= 6.39D-02 ExpMax= 4.17D+03 ExpMxC= 6.27D+02 IAcc=3 IRadAn=         5 AccDes= 0.00D+00
 Harris functional with IExCor= 1009 and IRadAn=       5 diagonalized for initial guess.
 HarFok:  IExCor= 1009 AccDes= 0.00D+00 IRadAn=         5 IDoV= 1 UseB2=F ITyADJ=14
 ICtDFT=  3500011 ScaDFX=  1.000000  1.000000  1.000000  1.000000
 FoFCou: FMM=F IPFlag=           0 FMFlag=      100000 FMFlg1=           0
         NFxFlg=           0 DoJE=T BraDBF=F KetDBF=T FulRan=T
         wScrn=  0.000000 ICntrl=       500 IOpCl=  0 I1Cent=   200000004 NGrid=           0
         NMat0=    1 NMatS0=      1 NMatT0=    0 NMatD0=    1 NMtDS0=    0 NMtDT0=    0
 Petite list used in FoFCou.
 Keep R1 ints in memory in canonical form, NReq=8811332.
 Requested convergence on RMS density matrix=1.00D-08 within 128 cycles.
 Requested convergence on MAX density matrix=1.00D-06.
 Requested convergence on             energy=1.00D-06.
 No special actions if energy rises.
 Inv3:  Mode=1 IEnd=      442368.
 Iteration    1 A*A^-1 deviation from unit magnitude is 2.66D-15 for    226.
 Iteration    1 A*A^-1 deviation from orthogonality  is 1.44D-15 for    349     64.
 Iteration    1 A^-1*A deviation from unit magnitude is 2.55D-15 for    226.
 Iteration    1 A^-1*A deviation from orthogonality  is 2.61D-15 for    145     94.
 Error on total polarization charges =  0.01966
 SCF Done:  E(RM062X) =  -56.5360438342     A.U. after    9 cycles
            NFock=  9  Conv=0.57D-08     -V/T= 2.0091
 SMD-CDS (non-electrostatic) energy       (kcal/mol) =       2.11
 (included in total energy above)
 DoSCS=F DFT=T ScalE2(SS,OS)=  1.000000  1.000000
 Range of M.O.s used for correlation:     1    34
 NBasis=    34 NAE=     5 NBE=     5 NFC=     0 NFV=     0
 NROrb=     34 NOA=     5 NOB=     5 NVA=    29 NVB=    29
 Symmetrizing basis deriv contribution to polar:
 IMax=3 JMax=2 DiffMx= 0.00D+00
 G2DrvN: will do     5 centers at a time, making    1 passes.
 Calling FoFCou, ICntrl=  3107 FMM=F I1Cent=   0 AccDes= 0.00D+00.
 NEqPCM:  Using equilibrium solvation (IEInf=0, Eps=  78.3553, EpsInf=   1.7778)
 G2PCM: DoFxE=T DoFxN=T DoGrad=T DoDP/DQ/DG/TGxP=FFFF NFrqRd=   0 IEInf=0 SqF1=F DoCFld=F IF1Alg=4.
 End of G2Drv F.D. properties file   721 does not exist.
 End of G2Drv F.D. properties file   722 does not exist.
 End of G2Drv F.D. properties file   788 does not exist.
          IDoAtm=1111
 NEqPCM:  Using equilibrium solvation (IEInf=0, Eps=  78.3553, EpsInf=   1.7778)
          Differentiating once with respect to nuclear coordinates.
 Keep R1 ints in memory in canonical form, NReq=8779965.
          There are    15 degrees of freedom in the 1st order CPHF.  IDoFFX=6 NUNeed=     0.
      9 vectors produced by pass  0 Test12= 9.67D-16 6.67D-09 XBig12= 3.95D-02 8.18D-02.
 AX will form     9 AO Fock derivatives at one time.
      9 vectors produced by pass  1 Test12= 9.67D-16 6.67D-09 XBig12= 7.03D-03 3.83D-02.
      9 vectors produced by pass  2 Test12= 9.67D-16 6.67D-09 XBig12= 3.94D-04 1.22D-02.
      9 vectors produced by pass  3 Test12= 9.67D-16 6.67D-09 XBig12= 2.95D-06 6.96D-04.
      9 vectors produced by pass  4 Test12= 9.67D-16 6.67D-09 XBig12= 1.00D-08 3.84D-05.
      8 vectors produced by pass  5 Test12= 9.67D-16 6.67D-09 XBig12= 8.15D-12 1.47D-06.
      3 vectors produced by pass  6 Test12= 9.67D-16 6.67D-09 XBig12= 1.82D-14 5.40D-08.
 InvSVY:  IOpt=1 It=  1 EMax= 1.33D-15
 Solved reduced A of dimension    56 with     9 vectors.
 End of Minotr F.D. properties file   721 does not exist.
 End of Minotr F.D. properties file   722 does not exist.
 End of Minotr F.D. properties file   788 does not exist.

 **********************************************************************

            Population analysis using the SCF density.

 **********************************************************************

 Orbital symmetries:
       Occupied  (A) (A) (A) (A) (A)
       Virtual   (A) (A) (A) (A) (A) (A) (A) (A) (A) (A) (A) (A)
                 (A) (A) (A) (A) (A) (A) (A) (A) (A) (A) (A) (A)
                 (A) (A) (A) (A) (A)
 The electronic state is 1-A.
 Alpha  occ. eigenvalues --  -14.73546  -0.95115  -0.52317  -0.52314  -0.33984
 Alpha virt. eigenvalues --    0.06025   0.11253   0.11255   0.13509   0.26208
 Alpha virt. eigenvalues --    0.26209   0.31391   0.88632   0.88633   0.94692
 Alpha virt. eigenvalues --    0.99209   0.99212   1.15287   1.19328   1.47472
 Alpha virt. eigenvalues --    1.47476   1.89625   2.14167   2.32020   2.32028
 Alpha virt. eigenvalues --    2.43593   2.43601   2.84206   2.98588   2.98594
 Alpha virt. eigenvalues --    3.31053   3.44833   3.44841   3.98589
          Condensed to atoms (all electrons):
               1          2          3          4
     1  N    6.991485   0.342391   0.342392   0.342387
     2  H    0.342391   0.367686  -0.024821  -0.024815
     3  H    0.342392  -0.024821   0.367685  -0.024820
     4  H    0.342387  -0.024815  -0.024820   0.367715
 Mulliken charges:
               1
     1  N   -1.018656
     2  H    0.339559
     3  H    0.339564
     4  H    0.339533
 Sum of Mulliken charges =   0.00000
 Mulliken charges with hydrogens summed into heavy atoms:
               1
     1  N    0.000000
 APT charges:
               1
     1  N   -1.416137
     2  H    0.472056
     3  H    0.472048
     4  H    0.472033
 Sum of APT charges =   0.00000
 APT charges with hydrogens summed into heavy atoms:
               1
     1  N    0.000000
 Electronic spatial extent (au):  <R**2>=             26.9597
 Charge=              0.0000 electrons
 Dipole moment (field-independent basis, Debye):
    X=             -0.0003    Y=              0.0001    Z=              2.3506  Tot=              2.3506
 Quadrupole moment (field-independent basis, Debye-Ang):
   XX=             -6.2201   YY=             -6.2205   ZZ=             -9.7339
   XY=             -0.0001   XZ=              0.0000   YZ=             -0.0000
 Traceless Quadrupole moment (field-independent basis, Debye-Ang):
   XX=              1.1714   YY=              1.1710   ZZ=             -2.3424
   XY=             -0.0001   XZ=              0.0000   YZ=             -0.0000
 Octapole moment (field-independent basis, Debye-Ang**2):
  XXX=              0.1490  YYY=              0.9939  ZZZ=              2.8401  XYY=             -0.1497
  XXY=             -0.9936  XXZ=              1.3312  XZZ=             -0.0001  YZZ=              0.0001
  YYZ=              1.3310  XYZ=             -0.0000
 Hexadecapole moment (field-independent basis, Debye-Ang**3):
 XXXX=            -10.0495 YYYY=            -10.0493 ZZZZ=            -14.6638 XXXY=              0.0000
 XXXZ=              0.0549 YYYX=             -0.0002 YYYZ=              0.3647 ZZZX=              0.0001
 ZZZY=             -0.0001 XXYY=             -3.3498 XXZZ=             -4.1746 YYZZ=             -4.1746
 XXYZ=             -0.3648 YYXZ=             -0.0549 ZZXY=             -0.0001
 N-N= 1.197440293226D+01 E-N=-1.556610548390D+02  KE= 5.602659715212D+01
  Exact polarizability:   0.000   0.000   0.000   0.000   0.000   0.000
 Approx polarizability:  10.132   0.000  10.130  -0.000  -0.000   9.907
 D2PCM: PCM CHGder 2nd derivatives, FixD1E=F FixD2E=F DoIter=F DoCFld=F I1PDM=0
 Calling FoFJK, ICntrl=    100147 FMM=F ISym2X=0 I1Cent= 0 IOpClX= 0 NMat=1 NMatS=1 NMatT=0.
 ***** Axes restored to original set *****
 -------------------------------------------------------------------
 Center     Atomic                   Forces (Hartrees/Bohr)
 Number     Number              X              Y              Z
 -------------------------------------------------------------------
      1        7           0.000062434    0.000008785    0.003703323
      2        1           0.003952442   -0.002568815   -0.001211410
      3        1           0.000246439    0.004769410   -0.001240305
      4        1          -0.004261315   -0.002209380   -0.001251608
 -------------------------------------------------------------------
 Cartesian Forces:  Max     0.004769410 RMS     0.002682657
 FormGI is forming the generalized inverse of G from B-inverse, IUseBI=4.

 GradGradGradGradGradGradGradGradGradGradGradGradGradGradGradGradGradGrad
 Berny optimization.
 Internal  Forces:  Max     0.004913783 RMS     0.003235874
 Search for a local minimum.
 Step number   1 out of a maximum of   20
 All quantities printed in internal units (Hartrees-Bohrs-Radians)
 Mixed Optimization -- RFO/linear search
 Second derivative matrix not updated -- analytic derivatives used.
 The second derivative matrix:
                          R1        R2        R3        A1        A2
           R1           0.47754
           R2          -0.00191   0.47749
           R3          -0.00189  -0.00197   0.47687
           A1           0.00732   0.00717  -0.00696   0.05021
           A2           0.01692  -0.00293   0.01910  -0.03907   0.12907
           A3          -0.00291   0.01710   0.01977  -0.03898  -0.01813
           D1          -0.01448  -0.01438  -0.00931  -0.02232  -0.00483
                          A3        D1
           A3           0.12879
           D1          -0.00482   0.02953
 ITU=  0
     Eigenvalues ---    0.04476   0.14153   0.14588   0.47656   0.48014
     Eigenvalues ---    0.48062
 RFO step:  Lambda=-1.61550400D-04 EMin= 4.47645519D-02
 Linear search not attempted -- first point.
 Iteration  1 RMS(Cart)=  0.00848119 RMS(Int)=  0.00003802
 Iteration  2 RMS(Cart)=  0.00001934 RMS(Int)=  0.00002390
 Iteration  3 RMS(Cart)=  0.00000000 RMS(Int)=  0.00002390
 Variable       Old X    -DE/DX   Delta X   Delta X   Delta X     New X
                                 (Linear)    (Quad)   (Total)
    R1        1.91089   0.00482   0.00000   0.00958   0.00958   1.92046
    R2        1.91075   0.00488   0.00000   0.00971   0.00971   1.92046
    R3        1.91078   0.00491   0.00000   0.00978   0.00978   1.92056
    A1        1.85546   0.00017   0.00000   0.00569   0.00564   1.86110
    A2        1.85564   0.00076   0.00000   0.00548   0.00546   1.86110
    A3        1.85555   0.00081   0.00000   0.00574   0.00572   1.86127
    D1       -1.97209  -0.00089   0.00000  -0.01140  -0.01143  -1.98353
         Item               Value     Threshold  Converged?
 Maximum Force            0.004914     0.000450     NO 
 RMS     Force            0.003236     0.000300     NO 
 Maximum Displacement     0.012739     0.001800     NO 
 RMS     Displacement     0.008481     0.001200     NO 
 Predicted change in Energy=-8.081615D-05
 GradGradGradGradGradGradGradGradGradGradGradGradGradGradGradGradGradGrad

                          Input orientation:                          
 ---------------------------------------------------------------------
 Center     Atomic      Atomic             Coordinates (Angstroms)
 Number     Number       Type             X           Y           Z
 ---------------------------------------------------------------------
      1          7           0        0.000002    0.000026    0.113802
      2          1           0        0.790213   -0.511084   -0.269772
      3          1           0        0.047618    0.939915   -0.269772
      4          1           0       -0.837739   -0.428831   -0.269830
 ---------------------------------------------------------------------
                    Distance matrix (angstroms):
                    1          2          3          4
     1  N    0.000000
     2  H    1.016266   0.000000
     3  H    1.016262   1.629984   0.000000
     4  H    1.016318   1.630029   1.630130   0.000000
 Stoichiometry    H3N
 Framework group  C1[X(H3N)]
 Deg. of freedom     6
 Full point group                 C1      NOp   1
 Largest Abelian subgroup         C1      NOp   1
 Largest concise Abelian subgroup C1      NOp   1
                         Standard orientation:                         
 ---------------------------------------------------------------------
 Center     Atomic      Atomic             Coordinates (Angstroms)
 Number     Number       Type             X           Y           Z
 ---------------------------------------------------------------------
      1          7           0       -0.000000    0.000012   -0.115078
      2          1           0       -0.143654   -0.930059    0.268496
      3          1           0       -0.733689    0.589384    0.268496
      4          1           0        0.877344    0.340593    0.268554
 ---------------------------------------------------------------------
 Rotational constants (GHZ):         296.4678800         296.4185765         188.7259296
 Standard basis: 6-31+G(d,p) (6D, 7F)
 There are    34 symmetry adapted cartesian basis functions of A   symmetry.
 There are    34 symmetry adapted basis functions of A   symmetry.
    34 basis functions,    53 primitive gaussians,    34 cartesian basis functions
     5 alpha electrons        5 beta electrons
       nuclear repulsion energy        11.9086021258 Hartrees.
 NAtoms=    4 NActive=    4 NUniq=    4 SFac= 1.00D+00 NAtFMM=   60 NAOKFM=F Big=F
 Integral buffers will be    131072 words long.
 Raffenetti 2 integral format.
 Two-electron integral symmetry is turned on.
 ------------------------------------------------------------------------------
 Polarizable Continuum Model (PCM)
 =================================
 Model                : PCM.
 Atomic radii         : SMD-Coulomb.
 Polarization charges : Total charges.
 Charge compensation  : None.
 Solution method      : Matrix inversion.
 Cavity type          : VdW (van der Waals Surface) (Alpha=1.000).
 Cavity algorithm     : GePol (No added spheres)
                        Default sphere list used, NSphG=    4.
                        Lebedev-Laikov grids with approx.  5.0 points / Ang**2.
                        Smoothing algorithm: York/Karplus (Gamma=1.0000).
                        Polarization charges: spherical gaussians, with
                                              point-specific exponents (IZeta= 3).
                        Self-potential: point-specific (ISelfS= 7).
                        Self-field    : sphere-specific E.n sum rule (ISelfD= 2).
 1st derivatives      : Analytical E(r).r(x)/FMM algorithm (CHGder, D1EAlg=3).
                        Cavity 1st derivative terms included.
 Solvent              : Water, Eps=  78.355300 Eps(inf)=   1.777849
 ------------------------------------------------------------------------------
 Spheres list:
 ISph  on   Nord     Re0    Alpha      Xe            Ye            Ze
    1   N      1    1.8900  1.000     -0.000000      0.000012     -0.115078
    2   H      2    1.2000  1.000     -0.143654     -0.930059      0.268496
    3   H      3    1.2000  1.000     -0.733689      0.589384      0.268496
    4   H      4    1.2000  1.000      0.877344      0.340593      0.268554
 ------------------------------------------------------------------------------
 ------------------------------------------------------------------------------
 Atomic radii for non-electrostatic terms: SMD-CDS.
 ------------------------------------------------------------------------------
 Nuclear repulsion after PCM non-electrostatic terms =       11.9119832159 Hartrees.
 One-electron integrals computed using PRISM.
 NBasis=    34 RedAO= T EigKep=  1.42D-02  NBF=    34
 NBsUse=    34 1.00D-06 EigRej= -1.00D+00 NBFU=    34
 Initial guess from the checkpoint file:  "/home/anmol/scrh/Gau-401438.chk"
 B after Tr=    -0.000000    0.000000    0.000000
         Rot=    0.912233   -0.000005   -0.000006   -0.409671 Ang= -48.37 deg.
 Keep R1 ints in memory in canonical form, NReq=8811332.
 Requested convergence on RMS density matrix=1.00D-08 within 128 cycles.
 Requested convergence on MAX density matrix=1.00D-06.
 Requested convergence on             energy=1.00D-06.
 No special actions if energy rises.
 Inv3:  Mode=1 IEnd=      444675.
 Iteration    1 A*A^-1 deviation from unit magnitude is 2.33D-15 for      1.
 Iteration    1 A*A^-1 deviation from orthogonality  is 1.78D-15 for    280     29.
 Iteration    1 A^-1*A deviation from unit magnitude is 2.89D-15 for    196.
 Iteration    1 A^-1*A deviation from orthogonality  is 1.33D-15 for    268     83.
 Error on total polarization charges =  0.01979
 SCF Done:  E(RM062X) =  -56.5361175672     A.U. after    8 cycles
            NFock=  8  Conv=0.19D-08     -V/T= 2.0096
 SMD-CDS (non-electrostatic) energy       (kcal/mol) =       2.12
 (included in total energy above)
 D1PCM: PCM CHGder 1st derivatives, ID1Alg=3 FixD1E=F DoIter=F DoCFld=F I1PDM=0.
 Calling FoFJK, ICntrl=      2127 FMM=F ISym2X=0 I1Cent= 0 IOpClX= 0 NMat=1 NMatS=1 NMatT=0.
 ***** Axes restored to original set *****
 -------------------------------------------------------------------
 Center     Atomic                   Forces (Hartrees/Bohr)
 Number     Number              X              Y              Z
 -------------------------------------------------------------------
      1        7           0.000062493   -0.000025302    0.000113940
      2        1           0.000032640   -0.000050935   -0.000027521
      3        1          -0.000018963    0.000062420   -0.000020417
      4        1          -0.000076170    0.000013817   -0.000066002
 -------------------------------------------------------------------
 Cartesian Forces:  Max     0.000113940 RMS     0.000055503

 GradGradGradGradGradGradGradGradGradGradGradGradGradGradGradGradGradGrad
 Berny optimization.
 Using GEDIIS/GDIIS optimizer.
 FormGI is forming the generalized inverse of G from B-inverse, IUseBI=4.
 Internal  Forces:  Max     0.000077679 RMS     0.000053797
 Search for a local minimum.
 Step number   2 out of a maximum of   20
 All quantities printed in internal units (Hartrees-Bohrs-Radians)
 Mixed Optimization -- En-DIIS/RFO-DIIS
 Update second derivatives using D2CorX and points    1    2
 DE= -7.37D-05 DEPred=-8.08D-05 R= 9.12D-01
 TightC=F SS=  1.41D+00  RLast= 2.25D-02 DXNew= 5.0454D-01 6.7531D-02
 Trust test= 9.12D-01 RLast= 2.25D-02 DXMaxT set to 3.00D-01
 The second derivative matrix:
                          R1        R2        R3        A1        A2
           R1           0.47547
           R2          -0.00433   0.47472
           R3          -0.00451  -0.00494   0.47368
           A1           0.00661   0.00645  -0.00769   0.05017
           A2           0.01705  -0.00286   0.01915  -0.03917   0.12916
           A3          -0.00082   0.01915   0.02180  -0.03902  -0.01772
           D1          -0.01469  -0.01454  -0.00943  -0.02221  -0.00495
                          A3        D1
           A3           0.12958
           D1          -0.00532   0.02968
 ITU=  1  0
 Use linear search instead of GDIIS.
     Eigenvalues ---    0.04496   0.14176   0.14588   0.46916   0.48007
     Eigenvalues ---    0.48063
 RFO step:  Lambda=-5.28315769D-08 EMin= 4.49619009D-02
 Quartic linear search produced a step of  0.01425.
 Iteration  1 RMS(Cart)=  0.00021824 RMS(Int)=  0.00000036
 Iteration  2 RMS(Cart)=  0.00000005 RMS(Int)=  0.00000036
 Variable       Old X    -DE/DX   Delta X   Delta X   Delta X     New X
                                 (Linear)    (Quad)   (Total)
    R1        1.92046   0.00006   0.00014   0.00002   0.00015   1.92062
    R2        1.92046   0.00007   0.00014   0.00006   0.00020   1.92065
    R3        1.92056   0.00008   0.00014   0.00008   0.00022   1.92079
    A1        1.86110   0.00002   0.00008   0.00011   0.00019   1.86129
    A2        1.86110  -0.00001   0.00008  -0.00012  -0.00005   1.86106
    A3        1.86127  -0.00007   0.00008  -0.00059  -0.00051   1.86077
    D1       -1.98353   0.00001  -0.00016   0.00020   0.00003  -1.98349
         Item               Value     Threshold  Converged?
 Maximum Force            0.000078     0.000450     YES
 RMS     Force            0.000054     0.000300     YES
 Maximum Displacement     0.000311     0.001800     YES
 RMS     Displacement     0.000218     0.001200     YES
 Predicted change in Energy=-3.870032D-08
 Optimization completed.
    -- Stationary point found.
                           ----------------------------
                           !   Optimized Parameters   !
                           ! (Angstroms and Degrees)  !
 --------------------------                            --------------------------
 ! Name  Definition              Value          Derivative Info.                !
 --------------------------------------------------------------------------------
 ! R1    R(1,2)                  1.0163         -DE/DX =    0.0001              !
 ! R2    R(1,3)                  1.0163         -DE/DX =    0.0001              !
 ! R3    R(1,4)                  1.0163         -DE/DX =    0.0001              !
 ! A1    A(2,1,3)              106.6333         -DE/DX =    0.0                 !
 ! A2    A(2,1,4)              106.6333         -DE/DX =    0.0                 !
 ! A3    A(3,1,4)              106.6431         -DE/DX =   -0.0001              !
 ! D1    D(2,1,4,3)           -113.6477         -DE/DX =    0.0                 !
 --------------------------------------------------------------------------------
 GradGradGradGradGradGradGradGradGradGradGradGradGradGradGradGradGradGrad

                          Input orientation:                          
 ---------------------------------------------------------------------
 Center     Atomic      Atomic             Coordinates (Angstroms)
 Number     Number       Type             X           Y           Z
 ---------------------------------------------------------------------
      1          7           0        0.000002    0.000026    0.113802
      2          1           0        0.790213   -0.511084   -0.269772
      3          1           0        0.047618    0.939915   -0.269772
      4          1           0       -0.837739   -0.428831   -0.269830
 ---------------------------------------------------------------------
                    Distance matrix (angstroms):
                    1          2          3          4
     1  N    0.000000
     2  H    1.016266   0.000000
     3  H    1.016262   1.629984   0.000000
     4  H    1.016318   1.630029   1.630130   0.000000
 Stoichiometry    H3N
 Framework group  C1[X(H3N)]
 Deg. of freedom     6
 Full point group                 C1      NOp   1
 Largest Abelian subgroup         C1      NOp   1
 Largest concise Abelian subgroup C1      NOp   1
                         Standard orientation:                         
 ---------------------------------------------------------------------
 Center     Atomic      Atomic             Coordinates (Angstroms)
 Number     Number       Type             X           Y           Z
 ---------------------------------------------------------------------
      1          7           0       -0.000000    0.000012   -0.115078
      2          1           0       -0.143654   -0.930059    0.268496
      3          1           0       -0.733689    0.589384    0.268496
      4          1           0        0.877344    0.340593    0.268554
 ---------------------------------------------------------------------
 Rotational constants (GHZ):         296.4678800         296.4185765         188.7259296

 **********************************************************************

            Population analysis using the SCF density.

 **********************************************************************

 Orbital symmetries:
       Occupied  (A) (A) (A) (A) (A)
       Virtual   (A) (A) (A) (A) (A) (A) (A) (A) (A) (A) (A) (A)
                 (A) (A) (A) (A) (A) (A) (A) (A) (A) (A) (A) (A)
                 (A) (A) (A) (A) (A)
 The electronic state is 1-A.
 Alpha  occ. eigenvalues --  -14.73682  -0.94842  -0.52197  -0.52195  -0.33882
 Alpha virt. eigenvalues --    0.06027   0.11263   0.11264   0.13520   0.26019
 Alpha virt. eigenvalues --    0.26023   0.31081   0.88749   0.88750   0.94659
 Alpha virt. eigenvalues --    0.99037   0.99041   1.14739   1.18814   1.47560
 Alpha virt. eigenvalues --    1.47564   1.89712   2.13530   2.31139   2.31148
 Alpha virt. eigenvalues --    2.43064   2.43071   2.82669   2.97780   2.97788
 Alpha virt. eigenvalues --    3.29624   3.43829   3.43839   3.98244
          Condensed to atoms (all electrons):
               1          2          3          4
     1  N    6.996277   0.341299   0.341302   0.341293
     2  H    0.341299   0.367627  -0.024498  -0.024506
     3  H    0.341302  -0.024498   0.367565  -0.024499
     4  H    0.341293  -0.024506  -0.024499   0.367750
 Mulliken charges:
               1
     1  N   -1.020171
     2  H    0.340079
     3  H    0.340130
     4  H    0.339962
 Sum of Mulliken charges =  -0.00000
 Mulliken charges with hydrogens summed into heavy atoms:
               1
     1  N   -0.000000
 Electronic spatial extent (au):  <R**2>=             27.0827
 Charge=             -0.0000 electrons
 Dipole moment (field-independent basis, Debye):
    X=             -0.0006    Y=             -0.0002    Z=              2.3288  Tot=              2.3288
 Quadrupole moment (field-independent basis, Debye-Ang):
   XX=             -6.2046   YY=             -6.2050   ZZ=             -9.7710
   XY=             -0.0002   XZ=             -0.0000   YZ=             -0.0000
 Traceless Quadrupole moment (field-independent basis, Debye-Ang):
   XX=              1.1889   YY=              1.1885   ZZ=             -2.3774
   XY=             -0.0002   XZ=             -0.0000   YZ=             -0.0000
 Octapole moment (field-independent basis, Debye-Ang**2):
  XXX=              0.4573  YYY=             -0.9259  ZZZ=              2.8020  XYY=             -0.4586
  XXY=              0.9256  XXZ=              1.3254  XZZ=             -0.0002  YZZ=             -0.0001
  YYZ=              1.3253  XYZ=             -0.0001
 Hexadecapole moment (field-independent basis, Debye-Ang**3):
 XXXX=            -10.1022 YYYY=            -10.1016 ZZZZ=            -14.7299 XXXY=             -0.0004
 XXXZ=              0.1659 YYYX=             -0.0002 YYYZ=             -0.3355 ZZZX=             -0.0001
 ZZZY=              0.0000 XXYY=             -3.3674 XXZZ=             -4.2045 YYZZ=             -4.2044
 XXYZ=              0.3355 YYXZ=             -0.1662 ZZXY=             -0.0001
 N-N= 1.191198321593D+01 E-N=-1.555228006366D+02  KE= 5.599950474747D+01
 1\1\GINC-ANMOL\FOpt\RM062X\6-31+G(d,p)\H3N1\ANMOL\22-Jul-2024\0\\# opt
 =calcfc freq=noraman 6-31+g(d,p) scrf=(smd,solvent=water) m062x\\Title
  Card Required\\0,1\N,0.0000015631,0.0000262677,0.1138020517\H,0.79021
 28948,-0.5110841067,-0.2697715347\H,0.0476178486,0.9399154095,-0.26977
 21055\H,-0.8377393065,-0.4288305704,-0.2698304116\\Version=ES64L-G16Re
 vA.03\State=1-A\HF=-56.5361176\RMSD=1.864e-09\RMSF=5.550e-05\Dipole=0.
 0002037,0.0001127,-0.9162388\Quadrupole=0.8835974,0.8839722,-1.7675696
 ,0.0001312,-0.0000152,-0.000003\PG=C01 [X(H3N1)]\\@


 WE HAVE SEEN THAT MAN ON THE AVERAGE DOES NOT LIVE ABOVE
 TWO-AND-TWENTY YEARS.  DURING THESE TWO AND TWENTY
 YEARS HE IS LIABLE TO TWO AND TWENTY THOUSAND EVILS,
 MANY OF WHICH ARE INCURABLE.  YET EVEN IN THIS DREADFUL STATE
 MEN STILL STRUT AND POSE ON THE STAGE OF LIFE.
 THEY MAKE LOVE AT THE RISK OF DESTRUCTION,
 INTRIGUE, CARRY ON WAR, AND FORM PROJECTS, JUST AS IF THEY
 WERE TO LIVE IN LUXURY AND HAPPINESS FOR A THOUSAND
 AGES.

                                              -- VOLTAIRE
 Job cpu time:       0 days  0 hours  1 minutes  8.2 seconds.
 Elapsed time:       0 days  0 hours  0 minutes  6.9 seconds.
 File lengths (MBytes):  RWF=     10 Int=      0 D2E=      0 Chk=      2 Scr=      1
 Normal termination of Gaussian 16 at Mon Jul 22 11:59:03 2024.
 Link1:  Proceeding to internal job step number  2.
 ----------------------------------------------------------------------
 #N Geom=AllCheck Guess=TCheck SCRF=Check GenChk RM062X/6-31+G(d,p) Fre
 q
 ----------------------------------------------------------------------
 1/10=4,29=7,30=1,38=1,40=1/1,3;
 2/12=2,40=1/2;
 3/5=1,6=6,7=111,11=2,14=-4,25=1,30=1,70=2,71=2,74=-55,116=1,140=1/1,2,3;
 4/5=101/1;
 5/5=2,38=6,98=1/2;
 8/6=4,10=90,11=11/1;
 11/6=1,8=1,9=11,15=111,16=1/1,2,10;
 10/6=1/2;
 6/7=2,8=2,9=2,10=2,28=1/1;
 7/8=1,10=1,25=1/1,2,3,16;
 1/10=4,30=1/3;
 99//99;
 Structure from the checkpoint file:  "/home/anmol/scrh/Gau-401438.chk"
 -------------------
 Title Card Required
 -------------------
 Charge =  0 Multiplicity = 1
 Redundant internal coordinates found in file.  (old form).
 N,0,0.0000015631,0.0000262677,0.1138020517
 H,0,0.7902128948,-0.5110841067,-0.2697715347
 H,0,0.0476178486,0.9399154095,-0.2697721055
 H,0,-0.8377393065,-0.4288305704,-0.2698304116
 Recover connectivity data from disk.

 GradGradGradGradGradGradGradGradGradGradGradGradGradGradGradGradGradGrad
 Berny optimization.
 Initialization pass.
                           ----------------------------
                           !    Initial Parameters    !
                           ! (Angstroms and Degrees)  !
 --------------------------                            --------------------------
 ! Name  Definition              Value          Derivative Info.                !
 --------------------------------------------------------------------------------
 ! R1    R(1,2)                  1.0163         calculate D2E/DX2 analytically  !
 ! R2    R(1,3)                  1.0163         calculate D2E/DX2 analytically  !
 ! R3    R(1,4)                  1.0163         calculate D2E/DX2 analytically  !
 ! A1    A(2,1,3)              106.6333         calculate D2E/DX2 analytically  !
 ! A2    A(2,1,4)              106.6333         calculate D2E/DX2 analytically  !
 ! A3    A(3,1,4)              106.6431         calculate D2E/DX2 analytically  !
 ! D1    D(2,1,4,3)           -113.6477         calculate D2E/DX2 analytically  !
 --------------------------------------------------------------------------------
 Trust Radius=3.00D-01 FncErr=1.00D-07 GrdErr=1.00D-07 EigMax=2.50D+02 EigMin=1.00D-04
 Number of steps in this run=      2 maximum allowed number of steps=      2.
 GradGradGradGradGradGradGradGradGradGradGradGradGradGradGradGradGradGrad

                          Input orientation:                          
 ---------------------------------------------------------------------
 Center     Atomic      Atomic             Coordinates (Angstroms)
 Number     Number       Type             X           Y           Z
 ---------------------------------------------------------------------
      1          7           0        0.000002    0.000026    0.113802
      2          1           0        0.790213   -0.511084   -0.269772
      3          1           0        0.047618    0.939915   -0.269772
      4          1           0       -0.837739   -0.428831   -0.269830
 ---------------------------------------------------------------------
                    Distance matrix (angstroms):
                    1          2          3          4
     1  N    0.000000
     2  H    1.016266   0.000000
     3  H    1.016262   1.629984   0.000000
     4  H    1.016318   1.630029   1.630130   0.000000
 Stoichiometry    H3N
 Framework group  C1[X(H3N)]
 Deg. of freedom     6
 Full point group                 C1      NOp   1
 Largest Abelian subgroup         C1      NOp   1
 Largest concise Abelian subgroup C1      NOp   1
                         Standard orientation:                         
 ---------------------------------------------------------------------
 Center     Atomic      Atomic             Coordinates (Angstroms)
 Number     Number       Type             X           Y           Z
 ---------------------------------------------------------------------
      1          7           0       -0.000000    0.000012   -0.115078
      2          1           0       -0.143654   -0.930059    0.268496
      3          1           0       -0.733689    0.589384    0.268496
      4          1           0        0.877344    0.340593    0.268554
 ---------------------------------------------------------------------
 Rotational constants (GHZ):         296.4678800         296.4185765         188.7259296
 Standard basis: 6-31+G(d,p) (6D, 7F)
 There are    34 symmetry adapted cartesian basis functions of A   symmetry.
 There are    34 symmetry adapted basis functions of A   symmetry.
    34 basis functions,    53 primitive gaussians,    34 cartesian basis functions
     5 alpha electrons        5 beta electrons
       nuclear repulsion energy        11.9086021258 Hartrees.
 NAtoms=    4 NActive=    4 NUniq=    4 SFac= 1.00D+00 NAtFMM=   60 NAOKFM=F Big=F
 Integral buffers will be    131072 words long.
 Raffenetti 2 integral format.
 Two-electron integral symmetry is turned on.
 Force inversion solution in PCM.
 ------------------------------------------------------------------------------
 Polarizable Continuum Model (PCM)
 =================================
 Model                : PCM.
 Atomic radii         : SMD-Coulomb.
 Polarization charges : Total charges.
 Charge compensation  : None.
 Solution method      : Matrix inversion.
 Cavity type          : VdW (van der Waals Surface) (Alpha=1.000).
 Cavity algorithm     : GePol (No added spheres)
                        Default sphere list used, NSphG=    4.
                        Lebedev-Laikov grids with approx.  5.0 points / Ang**2.
                        Smoothing algorithm: York/Karplus (Gamma=1.0000).
                        Polarization charges: spherical gaussians, with
                                              point-specific exponents (IZeta= 3).
                        Self-potential: point-specific (ISelfS= 7).
                        Self-field    : sphere-specific E.n sum rule (ISelfD= 2).
 1st derivatives      : Analytical E(r).r(x)/FMM algorithm (CHGder, D1EAlg=3).
                        Cavity 1st derivative terms included.
 2nd derivatives      : Analytical E(r).r(xy)/FMM algorithm (CHGder, D2EAlg=3).
                        Cavity 2nd derivative terms included.
 Solvent              : Water, Eps=  78.355300 Eps(inf)=   1.777849
 ------------------------------------------------------------------------------
 Spheres list:
 ISph  on   Nord     Re0    Alpha      Xe            Ye            Ze
    1   N      1    1.8900  1.000     -0.000000      0.000012     -0.115078
    2   H      2    1.2000  1.000     -0.143654     -0.930059      0.268496
    3   H      3    1.2000  1.000     -0.733689      0.589384      0.268496
    4   H      4    1.2000  1.000      0.877344      0.340593      0.268554
 ------------------------------------------------------------------------------
 ------------------------------------------------------------------------------
 Atomic radii for non-electrostatic terms: SMD-CDS.
 ------------------------------------------------------------------------------
 Nuclear repulsion after PCM non-electrostatic terms =       11.9119832159 Hartrees.
 One-electron integrals computed using PRISM.
 NBasis=    34 RedAO= T EigKep=  1.42D-02  NBF=    34
 NBsUse=    34 1.00D-06 EigRej= -1.00D+00 NBFU=    34
 Initial guess from the checkpoint file:  "/home/anmol/scrh/Gau-401438.chk"
 B after Tr=     0.000000    0.000000   -0.000000
         Rot=    1.000000   -0.000000    0.000000   -0.000000 Ang=   0.00 deg.
 Keep R1 ints in memory in canonical form, NReq=8811332.
 Requested convergence on RMS density matrix=1.00D-08 within 128 cycles.
 Requested convergence on MAX density matrix=1.00D-06.
 Requested convergence on             energy=1.00D-06.
 No special actions if energy rises.
 Inv3:  Mode=1 IEnd=      444675.
 Iteration    1 A*A^-1 deviation from unit magnitude is 2.44D-15 for    234.
 Iteration    1 A*A^-1 deviation from orthogonality  is 1.17D-15 for    245    188.
 Iteration    1 A^-1*A deviation from unit magnitude is 2.44D-15 for    247.
 Iteration    1 A^-1*A deviation from orthogonality  is 1.55D-15 for    188     25.
 Error on total polarization charges =  0.01979
 SCF Done:  E(RM062X) =  -56.5361175672     A.U. after    1 cycles
            NFock=  1  Conv=0.11D-09     -V/T= 2.0096
 SMD-CDS (non-electrostatic) energy       (kcal/mol) =       2.12
 (included in total energy above)
 DoSCS=F DFT=T ScalE2(SS,OS)=  1.000000  1.000000
 Range of M.O.s used for correlation:     1    34
 NBasis=    34 NAE=     5 NBE=     5 NFC=     0 NFV=     0
 NROrb=     34 NOA=     5 NOB=     5 NVA=    29 NVB=    29
 Symmetrizing basis deriv contribution to polar:
 IMax=3 JMax=2 DiffMx= 0.00D+00
 G2DrvN: will do     5 centers at a time, making    1 passes.
 Calling FoFCou, ICntrl=  3107 FMM=F I1Cent=   0 AccDes= 0.00D+00.
 NEqPCM:  Using equilibrium solvation (IEInf=0, Eps=  78.3553, EpsInf=   1.7778)
 G2PCM: DoFxE=T DoFxN=T DoGrad=T DoDP/DQ/DG/TGxP=FFFF NFrqRd=   0 IEInf=0 SqF1=F DoCFld=F IF1Alg=4.
 End of G2Drv F.D. properties file   721 does not exist.
 End of G2Drv F.D. properties file   722 does not exist.
 End of G2Drv F.D. properties file   788 does not exist.
          IDoAtm=1111
 NEqPCM:  Using equilibrium solvation (IEInf=0, Eps=  78.3553, EpsInf=   1.7778)
          Differentiating once with respect to electric field.
                with respect to dipole field.
          Differentiating once with respect to nuclear coordinates.
 Keep R1 ints in memory in canonical form, NReq=8779965.
          There are    15 degrees of freedom in the 1st order CPHF.  IDoFFX=6 NUNeed=     3.
     12 vectors produced by pass  0 Test12= 9.67D-16 6.67D-09 XBig12= 4.25D+00 1.72D+00.
 AX will form    12 AO Fock derivatives at one time.
     12 vectors produced by pass  1 Test12= 9.67D-16 6.67D-09 XBig12= 2.28D-01 1.92D-01.
     12 vectors produced by pass  2 Test12= 9.67D-16 6.67D-09 XBig12= 3.26D-03 2.44D-02.
     12 vectors produced by pass  3 Test12= 9.67D-16 6.67D-09 XBig12= 6.05D-06 1.03D-03.
     12 vectors produced by pass  4 Test12= 9.67D-16 6.67D-09 XBig12= 1.72D-08 5.22D-05.
      6 vectors produced by pass  5 Test12= 9.67D-16 6.67D-09 XBig12= 4.03D-11 2.09D-06.
      3 vectors produced by pass  6 Test12= 9.67D-16 6.67D-09 XBig12= 7.03D-14 1.22D-07.
 InvSVY:  IOpt=1 It=  1 EMax= 8.88D-16
 Solved reduced A of dimension    69 with    12 vectors.
 Isotropic polarizability for W=    0.000000       12.55 Bohr**3.
 End of Minotr F.D. properties file   721 does not exist.
 End of Minotr F.D. properties file   722 does not exist.
 End of Minotr F.D. properties file   788 does not exist.

 **********************************************************************

            Population analysis using the SCF density.

 **********************************************************************

 Orbital symmetries:
       Occupied  (A) (A) (A) (A) (A)
       Virtual   (A) (A) (A) (A) (A) (A) (A) (A) (A) (A) (A) (A)
                 (A) (A) (A) (A) (A) (A) (A) (A) (A) (A) (A) (A)
                 (A) (A) (A) (A) (A)
 The electronic state is 1-A.
 Alpha  occ. eigenvalues --  -14.73682  -0.94842  -0.52197  -0.52195  -0.33882
 Alpha virt. eigenvalues --    0.06027   0.11263   0.11264   0.13520   0.26019
 Alpha virt. eigenvalues --    0.26023   0.31081   0.88749   0.88750   0.94659
 Alpha virt. eigenvalues --    0.99037   0.99041   1.14739   1.18814   1.47560
 Alpha virt. eigenvalues --    1.47564   1.89712   2.13530   2.31139   2.31148
 Alpha virt. eigenvalues --    2.43064   2.43071   2.82669   2.97780   2.97788
 Alpha virt. eigenvalues --    3.29624   3.43829   3.43839   3.98244
          Condensed to atoms (all electrons):
               1          2          3          4
     1  N    6.996277   0.341299   0.341302   0.341293
     2  H    0.341299   0.367627  -0.024498  -0.024506
     3  H    0.341302  -0.024498   0.367565  -0.024499
     4  H    0.341293  -0.024506  -0.024499   0.367750
 Mulliken charges:
               1
     1  N   -1.020171
     2  H    0.340079
     3  H    0.340130
     4  H    0.339962
 Sum of Mulliken charges =   0.00000
 Mulliken charges with hydrogens summed into heavy atoms:
               1
     1  N    0.000000
 APT charges:
               1
     1  N   -0.722661
     2  H    0.240450
     3  H    0.240821
     4  H    0.241390
 Sum of APT charges =   0.00000
 APT charges with hydrogens summed into heavy atoms:
               1
     1  N    0.000000
 Electronic spatial extent (au):  <R**2>=             27.0827
 Charge=              0.0000 electrons
 Dipole moment (field-independent basis, Debye):
    X=             -0.0006    Y=             -0.0002    Z=              2.3288  Tot=              2.3288
 Quadrupole moment (field-independent basis, Debye-Ang):
   XX=             -6.2046   YY=             -6.2050   ZZ=             -9.7710
   XY=             -0.0002   XZ=             -0.0000   YZ=             -0.0000
 Traceless Quadrupole moment (field-independent basis, Debye-Ang):
   XX=              1.1889   YY=              1.1885   ZZ=             -2.3774
   XY=             -0.0002   XZ=             -0.0000   YZ=             -0.0000
 Octapole moment (field-independent basis, Debye-Ang**2):
  XXX=              0.4573  YYY=             -0.9259  ZZZ=              2.8020  XYY=             -0.4586
  XXY=              0.9256  XXZ=              1.3254  XZZ=             -0.0002  YZZ=             -0.0001
  YYZ=              1.3253  XYZ=             -0.0001
 Hexadecapole moment (field-independent basis, Debye-Ang**3):
 XXXX=            -10.1022 YYYY=            -10.1016 ZZZZ=            -14.7299 XXXY=             -0.0004
 XXXZ=              0.1659 YYYX=             -0.0002 YYYZ=             -0.3355 ZZZX=             -0.0001
 ZZZY=              0.0000 XXYY=             -3.3674 XXZZ=             -4.2045 YYZZ=             -4.2044
 XXYZ=              0.3355 YYXZ=             -0.1662 ZZXY=             -0.0001
 N-N= 1.191198321593D+01 E-N=-1.555228006458D+02  KE= 5.599950475262D+01
  Exact polarizability:  12.187  -0.004  12.190  -0.001  -0.002  13.277
 Approx polarizability:  10.245   0.000  10.243   0.001   0.000   9.980
 D2PCM: PCM CHGder 2nd derivatives, FixD1E=F FixD2E=F DoIter=F DoCFld=F I1PDM=0
 Calling FoFJK, ICntrl=    100127 FMM=F ISym2X=0 I1Cent= 0 IOpClX= 0 NMat=1 NMatS=1 NMatT=0.
 Full mass-weighted force constant matrix:
 Low frequencies ---  -77.4826  -55.2037   -0.0013   -0.0009    0.0013   29.7921
 Low frequencies --- 1071.5092 1623.9239 1625.8174
 Diagonal vibrational polarizability:
        0.5252083       0.5319483       7.5362053
 Harmonic frequencies (cm**-1), IR intensities (KM/Mole), Raman scattering
 activities (A**4/AMU), depolarization ratios for plane and unpolarized
 incident light, reduced masses (AMU), force constants (mDyne/A),
 and normal coordinates:
                      1                      2                      3
                      A                      A                      A
 Frequencies --   1071.5024              1623.9216              1625.8157
 Red. masses --      1.1785                 1.0651                 1.0651
 Frc consts  --      0.7972                 1.6549                 1.6587
 IR Inten    --    321.4494                46.3047                45.7116
  Atom  AN      X      Y      Z        X      Y      Z        X      Y      Z
     1   7     0.00   0.00  -0.11     0.00  -0.07  -0.00    -0.07  -0.00  -0.00
     2   1     0.03   0.22   0.53    -0.18  -0.12  -0.24     0.73  -0.14  -0.05
     3   1     0.17  -0.14   0.53     0.43   0.38   0.17     0.23   0.46  -0.19
     4   1    -0.20  -0.08   0.53    -0.30   0.66   0.08    -0.04  -0.27   0.24
                      4                      5                      6
                      A                      A                      A
 Frequencies --   3508.6297              3637.5187              3639.1976
 Red. masses --      1.0284                 1.0903                 1.0903
 Frc consts  --      7.4590                 8.5000                 8.5074
 IR Inten    --      0.7498                29.5211                29.1223
  Atom  AN      X      Y      Z        X      Y      Z        X      Y      Z
     1   7     0.00   0.00   0.04    -0.08  -0.01   0.00     0.01  -0.08   0.00
     2   1     0.08   0.53  -0.18     0.02   0.25  -0.10     0.12   0.71  -0.29
     3   1     0.43  -0.34  -0.18     0.38  -0.33  -0.20    -0.45   0.34   0.22
     4   1    -0.52  -0.20  -0.19     0.69   0.27   0.29     0.14   0.04   0.06

 -------------------
 - Thermochemistry -
 -------------------
 Temperature   298.150 Kelvin.  Pressure   1.00000 Atm.
 Atom     1 has atomic number  7 and mass  14.00307
 Atom     2 has atomic number  1 and mass   1.00783
 Atom     3 has atomic number  1 and mass   1.00783
 Atom     4 has atomic number  1 and mass   1.00783
 Molecular mass:    17.02655 amu.
 Principal axes and moments of inertia in atomic units:
                           1         2         3
     Eigenvalues --     6.08748   6.08849   9.56276
           X            1.00000   0.00000  -0.00005
           Y           -0.00000   1.00000   0.00002
           Z            0.00005  -0.00002   1.00000
 This molecule is an asymmetric top.
 Rotational symmetry number  1.
 Rotational temperatures (Kelvin)     14.22822    14.22585     9.05742
 Rotational constants (GHZ):         296.46788   296.41858   188.72593
 Zero-point vibrational energy      90357.4 (Joules/Mol)
                                   21.59595 (Kcal/Mol)
 Vibrational temperatures:   1541.65  2336.46  2339.19  5048.14  5233.58
          (Kelvin)           5235.99
 
 Zero-point correction=                           0.034415 (Hartree/Particle)
 Thermal correction to Energy=                    0.037282
 Thermal correction to Enthalpy=                  0.038226
 Thermal correction to Gibbs Free Energy=         0.015343
 Sum of electronic and zero-point Energies=            -56.501702
 Sum of electronic and thermal Energies=               -56.498836
 Sum of electronic and thermal Enthalpies=             -56.497892
 Sum of electronic and thermal Free Energies=          -56.520774
 
                     E (Thermal)             CV                S
                      KCal/Mol        Cal/Mol-Kelvin    Cal/Mol-Kelvin
 Total                   23.395              6.363             48.160
 Electronic               0.000              0.000              0.000
 Translational            0.889              2.981             34.441
 Rotational               0.889              2.981             13.636
 Vibrational             21.617              0.401              0.084
                       Q            Log10(Q)             Ln(Q)
 Total Bot       0.876252D-07         -7.057371        -16.250197
 Total V=0       0.592339D+09          8.772570         20.199589
 Vib (Bot)       0.148893D-15        -15.827125        -36.443303
 Vib (V=0)       0.100650D+01          0.002816          0.006483
 Electronic      0.100000D+01          0.000000          0.000000
 Translational   0.276149D+07          6.441144         14.831282
 Rotational      0.213113D+03          2.328611          5.361824
 ***** Axes restored to original set *****
 -------------------------------------------------------------------
 Center     Atomic                   Forces (Hartrees/Bohr)
 Number     Number              X              Y              Z
 -------------------------------------------------------------------
      1        7           0.000062493   -0.000025303    0.000113940
      2        1           0.000032640   -0.000050934   -0.000027520
      3        1          -0.000018963    0.000062420   -0.000020417
      4        1          -0.000076170    0.000013817   -0.000066002
 -------------------------------------------------------------------
 Cartesian Forces:  Max     0.000113940 RMS     0.000055503
 FormGI is forming the generalized inverse of G from B-inverse, IUseBI=4.

 GradGradGradGradGradGradGradGradGradGradGradGradGradGradGradGradGradGrad
 Berny optimization.
 Internal  Forces:  Max     0.000077679 RMS     0.000053797
 Search for a local minimum.
 Step number   1 out of a maximum of    2
 All quantities printed in internal units (Hartrees-Bohrs-Radians)
 Second derivative matrix not updated -- analytic derivatives used.
 The second derivative matrix:
                          R1        R2        R3        A1        A2
           R1           0.46202
           R2          -0.00200   0.46171
           R3          -0.00198  -0.00204   0.46125
           A1           0.00699   0.00695  -0.00699   0.05033
           A2           0.01664  -0.00287   0.01862  -0.03913   0.12669
           A3          -0.00293   0.01673   0.01926  -0.03903  -0.01902
           D1          -0.01423  -0.01426  -0.00936  -0.02161  -0.00463
                          A3        D1
           A3           0.12659
           D1          -0.00469   0.02889
 ITU=  0
     Eigenvalues ---    0.04327   0.13934   0.14447   0.46074   0.46458
     Eigenvalues ---    0.46507
 Angle between quadratic step and forces=  41.35 degrees.
 Linear search not attempted -- first point.
 Iteration  1 RMS(Cart)=  0.00023748 RMS(Int)=  0.00000010
 Iteration  2 RMS(Cart)=  0.00000008 RMS(Int)=  0.00000007
 Variable       Old X    -DE/DX   Delta X   Delta X   Delta X     New X
                                 (Linear)    (Quad)   (Total)
    R1        1.92046   0.00006   0.00000   0.00014   0.00014   1.92061
    R2        1.92046   0.00007   0.00000   0.00019   0.00019   1.92064
    R3        1.92056   0.00008   0.00000   0.00021   0.00021   1.92077
    A1        1.86110   0.00002   0.00000   0.00000   0.00000   1.86110
    A2        1.86110  -0.00001   0.00000  -0.00017  -0.00017   1.86094
    A3        1.86127  -0.00007   0.00000  -0.00063  -0.00063   1.86065
    D1       -1.98353   0.00001   0.00000   0.00036   0.00036  -1.98317
         Item               Value     Threshold  Converged?
 Maximum Force            0.000078     0.000450     YES
 RMS     Force            0.000054     0.000300     YES
 Maximum Displacement     0.000372     0.001800     YES
 RMS     Displacement     0.000238     0.001200     YES
 Predicted change in Energy=-4.300471D-08
 Optimization completed.
    -- Stationary point found.
                           ----------------------------
                           !   Optimized Parameters   !
                           ! (Angstroms and Degrees)  !
 --------------------------                            --------------------------
 ! Name  Definition              Value          Derivative Info.                !
 --------------------------------------------------------------------------------
 ! R1    R(1,2)                  1.0163         -DE/DX =    0.0001              !
 ! R2    R(1,3)                  1.0163         -DE/DX =    0.0001              !
 ! R3    R(1,4)                  1.0163         -DE/DX =    0.0001              !
 ! A1    A(2,1,3)              106.6333         -DE/DX =    0.0                 !
 ! A2    A(2,1,4)              106.6333         -DE/DX =    0.0                 !
 ! A3    A(3,1,4)              106.6431         -DE/DX =   -0.0001              !
 ! D1    D(2,1,4,3)           -113.6477         -DE/DX =    0.0                 !
 --------------------------------------------------------------------------------
 GradGradGradGradGradGradGradGradGradGradGradGradGradGradGradGradGradGrad


 ----------------------------------------------------------------------

 Electric dipole moment (input orientation):
 (Debye = 10**-18 statcoulomb cm , SI units = C m)
                  (au)            (Debye)         (10**-30 SI)
   Tot        0.916239D+00      0.232885D+01      0.776820D+01
   x          0.203739D-03      0.517853D-03      0.172737D-02
   y          0.112708D-03      0.286474D-03      0.955575D-03
   z         -0.916239D+00     -0.232885D+01     -0.776820D+01

 Dipole polarizability, Alpha (input orientation).
 (esu units = cm**3 , SI units = C**2 m**2 J**-1)
 Alpha(0;0):
               (au)            (10**-24 esu)      (10**-40 SI)
   iso        0.125514D+02      0.185992D+01      0.206944D+01
   aniso      0.108862D+01      0.161317D+00      0.179490D+00
   xx         0.121849D+02      0.180561D+01      0.200902D+01
   yx        -0.173528D-02     -0.257142D-03     -0.286109D-03
   yy         0.121921D+02      0.180668D+01      0.201021D+01
   zx        -0.227396D-02     -0.336966D-03     -0.374925D-03
   zy         0.611703D-04      0.906450D-05      0.100856D-04
   zz         0.132771D+02      0.196746D+01      0.218910D+01

 ----------------------------------------------------------------------

 Dipole orientation:
     7          0.00005077         -0.00007609         -0.21505470
     1          1.49317257          0.96587171          0.51000755
     1          0.08987131         -1.77611998          0.51003388
     1         -1.58321119          0.81043503          0.50945385

 Electric dipole moment (dipole orientation):
 (Debye = 10**-18 statcoulomb cm , SI units = C m)
                  (au)            (Debye)         (10**-30 SI)
   Tot        0.916239D+00      0.232885D+01      0.776820D+01
   x          0.000000D+00      0.000000D+00      0.000000D+00
   y          0.000000D+00      0.000000D+00      0.000000D+00
   z          0.916239D+00      0.232885D+01      0.776820D+01

 Dipole polarizability, Alpha (dipole orientation).
 (esu units = cm**3 , SI units = C**2 m**2 J**-1)
 Alpha(0;0):
               (au)            (10**-24 esu)      (10**-40 SI)
   iso        0.125514D+02      0.185992D+01      0.206944D+01
   aniso      0.108862D+01      0.161317D+00      0.179490D+00
   xx         0.121849D+02      0.180561D+01      0.200902D+01
   yx         0.173551D-02      0.257177D-03      0.286148D-03
   yy         0.121921D+02      0.180668D+01      0.201021D+01
   zx         0.203088D-02      0.300945D-03      0.334846D-03
   zy         0.195022D-03      0.288993D-04      0.321548D-04
   zz         0.132771D+02      0.196746D+01      0.218910D+01

 ----------------------------------------------------------------------
 1\1\GINC-ANMOL\Freq\RM062X\6-31+G(d,p)\H3N1\ANMOL\22-Jul-2024\0\\#N Ge
 om=AllCheck Guess=TCheck SCRF=Check GenChk RM062X/6-31+G(d,p) Freq\\Ti
 tle Card Required\\0,1\N,0.0000015631,0.0000262677,0.1138020517\H,0.79
 02128948,-0.5110841067,-0.2697715347\H,0.0476178486,0.9399154095,-0.26
 97721055\H,-0.8377393065,-0.4288305704,-0.2698304116\\Version=ES64L-G1
 6RevA.03\State=1-A\HF=-56.5361176\RMSD=1.105e-10\RMSF=5.550e-05\ZeroPo
 int=0.0344153\Thermal=0.0372816\Dipole=0.0002037,0.0001127,-0.9162388\
 DipoleDeriv=-0.6523684,-0.0004365,-0.0007934,0.0012083,-0.651675,0.000
 173,-0.0016328,-0.0005964,-0.8639397,0.2033231,0.0290337,0.0849982,0.0
 284856,0.2302146,-0.054726,0.1395254,-0.0906003,0.2878124,0.2487312,-0
 .003479,0.0052295,-0.0034266,0.1860258,0.1008585,0.0087087,0.1665371,0
 .2877054,0.2003141,-0.0251182,-0.0894344,-0.0262674,0.2354346,-0.04630
 54,-0.1466013,-0.0753404,0.2884219\Polar=12.1848916,-0.0017353,12.1921
 024,-0.002274,0.0000612,13.2770913\Quadrupole=0.8835974,0.8839722,-1.7
 675696,0.0001312,-0.0000152,-0.000003\PG=C01 [X(H3N1)]\NImag=0\\0.6522
 4890,0.00020348,0.65316399,-0.00037538,0.00013849,0.23543130,-0.283422
 80,0.14603045,0.10593674,0.30424440,0.14604985,-0.15218759,-0.06863187
 ,-0.16093233,0.15962664,0.14919230,-0.09658991,-0.07841453,-0.12161497
 ,0.07876866,0.07430204,-0.05830932,-0.01620856,0.00646035,0.00247981,0
 .03048613,-0.01307622,0.05619146,-0.01618671,-0.37687173,0.12586596,-0
 .00401499,-0.01661154,0.00999578,0.01782984,0.40723006,0.00904992,0.17
 725217,-0.07844664,0.00046977,-0.01646667,0.00205977,-0.00738771,-0.14
 448430,0.07433277,-0.31051678,-0.13002536,-0.11202172,-0.02330140,-0.0
 1560366,-0.01450112,-0.00036195,0.00237186,-0.00213198,0.33418014,-0.1
 3006662,-0.12410467,-0.05737257,0.01891687,0.00917249,0.00782547,-0.03
 210741,-0.01374679,-0.01630120,0.14325716,0.12867898,-0.15786684,-0.08
 080075,-0.07857013,0.01520845,0.00632988,0.00205272,0.01400358,0.00862
 257,0.00205410,0.12865481,0.06584830,0.07446331\\-0.00006249,0.0000253
 0,-0.00011394,-0.00003264,0.00005093,0.00002752,0.00001896,-0.00006242
 ,0.00002042,0.00007617,-0.00001382,0.00006600\\\@


 ART, GLORY, FREEDOM FAIL, BUT NATURE STILL IS FAIR.

                                           -- BYRON
 Job cpu time:       0 days  0 hours  0 minutes 46.5 seconds.
 Elapsed time:       0 days  0 hours  0 minutes  4.7 seconds.
 File lengths (MBytes):  RWF=     10 Int=      0 D2E=      0 Chk=      3 Scr=      1
 Normal termination of Gaussian 16 at Mon Jul 22 11:59:08 2024.
