 Entering Gaussian System, Link 0=g16
 Input=rct.gjf
 Output=rct.log
 Initial command:
 /home/anmol/Softwares//g16/l1.exe "/home/anmol/scrh/Gau-432004.inp" -scrdir="/home/anmol/scrh/"
 Entering Link 1 = /home/anmol/Softwares//g16/l1.exe PID=    432006.
  
 Copyright (c) 1988,1990,1992,1993,1995,1998,2003,2009,2016,
            Gaussian, Inc.  All Rights Reserved.
  
 This is part of the Gaussian(R) 16 program.  It is based on
 the Gaussian(R) 09 system (copyright 2009, Gaussian, Inc.),
 the Gaussian(R) 03 system (copyright 2003, Gaussian, Inc.),
 the Gaussian(R) 98 system (copyright 1998, Gaussian, Inc.),
 the Gaussian(R) 94 system (copyright 1995, Gaussian, Inc.),
 the Gaussian 92(TM) system (copyright 1992, Gaussian, Inc.),
 the Gaussian 90(TM) system (copyright 1990, Gaussian, Inc.),
 the Gaussian 88(TM) system (copyright 1988, Gaussian, Inc.),
 the Gaussian 86(TM) system (copyright 1986, Carnegie Mellon
 University), and the Gaussian 82(TM) system (copyright 1983,
 Carnegie Mellon University). Gaussian is a federally registered
 trademark of Gaussian, Inc.
  
 This software contains proprietary and confidential information,
 including trade secrets, belonging to Gaussian, Inc.
  
 This software is provided under written license and may be
 used, copied, transmitted, or stored only in accord with that
 written license.
  
 The following legend is applicable only to US Government
 contracts under FAR:
  
                    RESTRICTED RIGHTS LEGEND
  
 Use, reproduction and disclosure by the US Government is
 subject to restrictions as set forth in subparagraphs (a)
 and (c) of the Commercial Computer Software - Restricted
 Rights clause in FAR 52.227-19.
  
 Gaussian, Inc.
 340 Quinnipiac St., Bldg. 40, Wallingford CT 06492
  
  
 ---------------------------------------------------------------
 Warning -- This program may not be used in any manner that
 competes with the business of Gaussian, Inc. or will provide
 assistance to any competitor of Gaussian, Inc.  The licensee
 of this program is prohibited from giving any competitor of
 Gaussian, Inc. access to this program.  By using this program,
 the user acknowledges that Gaussian, Inc. is engaged in the
 business of creating and licensing software in the field of
 computational chemistry and represents and warrants to the
 licensee that it is not a competitor of Gaussian, Inc. and that
 it will not use this program in any manner prohibited above.
 ---------------------------------------------------------------
  

 Cite this work as:
 Gaussian 16, Revision A.03,
 M. J. Frisch, G. W. Trucks, H. B. Schlegel, G. E. Scuseria, 
 M. A. Robb, J. R. Cheeseman, G. Scalmani, V. Barone, 
 G. A. Petersson, H. Nakatsuji, X. Li, M. Caricato, A. V. Marenich, 
 J. Bloino, B. G. Janesko, R. Gomperts, B. Mennucci, H. P. Hratchian, 
 J. V. Ortiz, A. F. Izmaylov, J. L. Sonnenberg, D. Williams-Young, 
 F. Ding, F. Lipparini, F. Egidi, J. Goings, B. Peng, A. Petrone, 
 T. Henderson, D. Ranasinghe, V. G. Zakrzewski, J. Gao, N. Rega, 
 G. Zheng, W. Liang, M. Hada, M. Ehara, K. Toyota, R. Fukuda, 
 J. Hasegawa, M. Ishida, T. Nakajima, Y. Honda, O. Kitao, H. Nakai, 
 T. Vreven, K. Throssell, J. A. Montgomery, Jr., J. E. Peralta, 
 F. Ogliaro, M. J. Bearpark, J. J. Heyd, E. N. Brothers, K. N. Kudin, 
 V. N. Staroverov, T. A. Keith, R. Kobayashi, J. Normand, 
 K. Raghavachari, A. P. Rendell, J. C. Burant, S. S. Iyengar, 
 J. Tomasi, M. Cossi, J. M. Millam, M. Klene, C. Adamo, R. Cammi, 
 J. W. Ochterski, R. L. Martin, K. Morokuma, O. Farkas, 
 J. B. Foresman, and D. J. Fox, Gaussian, Inc., Wallingford CT, 2016.
 
 ******************************************
 Gaussian 16:  ES64L-G16RevA.03 25-Dec-2016
                22-Jul-2024 
 ******************************************
 %nprocshared=10
 Will use up to   10 processors via shared memory.
 %mem=10GB
 -------------------------------------------------------------
 # opt freq=noraman 6-31+g(d,p) scrf=(smd,solvent=water) m062x
 -------------------------------------------------------------
 1/18=20,19=15,26=3,38=1/1,3;
 2/9=110,12=2,17=6,18=5,40=1/2;
 3/5=1,6=6,7=111,11=2,25=1,30=1,70=32201,71=1,72=1,74=-55/1,2,3;
 4//1;
 5/5=2,38=5,53=1/2;
 6/7=2,8=2,9=2,10=2,28=1/1;
 7//1,2,3,16;
 1/18=20,19=15,26=3/3(2);
 2/9=110/2;
 99//99;
 2/9=110/2;
 3/5=1,6=6,7=111,11=2,25=1,30=1,70=32205,71=1,72=1,74=-55/1,2,3;
 4/5=5,16=3,69=1/1;
 5/5=2,38=5,53=1/2;
 7//1,2,3,16;
 1/18=20,19=15,26=3/3(-5);
 2/9=110/2;
 6/7=2,8=2,9=2,10=2,19=2,28=1/1;
 99/9=1/99;
 -------------------
 Title Card Required
 -------------------
 Symbolic Z-matrix:
 Charge =  0 Multiplicity = 1
 C                    -1.13815   0.00003  -0.00001 
 Cl                    0.66182  0.         0. 
 H                    -1.47404  -0.39025   0.95846 
 H                    -1.47401  -0.63511  -0.81711 
 H                    -1.47392   1.02527  -0.14135 
 

 GradGradGradGradGradGradGradGradGradGradGradGradGradGradGradGradGradGrad
 Berny optimization.
 Initialization pass.
                           ----------------------------
                           !    Initial Parameters    !
                           ! (Angstroms and Degrees)  !
 --------------------------                            --------------------------
 ! Name  Definition              Value          Derivative Info.                !
 --------------------------------------------------------------------------------
 ! R1    R(1,2)                  1.8            estimate D2E/DX2                !
 ! R2    R(1,3)                  1.088          estimate D2E/DX2                !
 ! R3    R(1,4)                  1.0881         estimate D2E/DX2                !
 ! R4    R(1,5)                  1.088          estimate D2E/DX2                !
 ! A1    A(2,1,3)              107.981          estimate D2E/DX2                !
 ! A2    A(2,1,4)              107.979          estimate D2E/DX2                !
 ! A3    A(2,1,5)              107.9756         estimate D2E/DX2                !
 ! A4    A(3,1,4)              110.9088         estimate D2E/DX2                !
 ! A5    A(3,1,5)              110.9261         estimate D2E/DX2                !
 ! A6    A(4,1,5)              110.9305         estimate D2E/DX2                !
 ! D1    D(2,1,4,3)            118.1255         estimate D2E/DX2                !
 ! D2    D(2,1,5,3)           -118.1334         estimate D2E/DX2                !
 ! D3    D(2,1,5,4)            118.1334         estimate D2E/DX2                !
 ! D4    D(3,1,5,4)           -123.7332         estimate D2E/DX2                !
 --------------------------------------------------------------------------------
 Trust Radius=3.00D-01 FncErr=1.00D-07 GrdErr=1.00D-06 EigMax=2.50D+02 EigMin=1.00D-04
 Number of steps in this run=     24 maximum allowed number of steps=    100.
 GradGradGradGradGradGradGradGradGradGradGradGradGradGradGradGradGradGrad

                          Input orientation:                          
 ---------------------------------------------------------------------
 Center     Atomic      Atomic             Coordinates (Angstroms)
 Number     Number       Type             X           Y           Z
 ---------------------------------------------------------------------
      1          6           0       -1.138154    0.000027   -0.000006
      2         17           0        0.661817   -0.000004    0.000002
      3          1           0       -1.474040   -0.390246    0.958463
      4          1           0       -1.474008   -0.635108   -0.817110
      5          1           0       -1.473917    1.025267   -0.141345
 ---------------------------------------------------------------------
                    Distance matrix (angstroms):
                    1          2          3          4          5
     1  C    0.000000
     2  Cl   1.799971   0.000000
     3  H    1.088024   2.373357   0.000000
     4  H    1.088050   2.373347   1.792377   0.000000
     5  H    1.088040   2.373293   1.792555   1.792625   0.000000
 Stoichiometry    CH3Cl
 Framework group  C1[X(CH3Cl)]
 Deg. of freedom     9
 Full point group                 C1      NOp   1
 Largest Abelian subgroup         C1      NOp   1
 Largest concise Abelian subgroup C1      NOp   1
                         Standard orientation:                         
 ---------------------------------------------------------------------
 Center     Atomic      Atomic             Coordinates (Angstroms)
 Number     Number       Type             X           Y           Z
 ---------------------------------------------------------------------
      1          6           0       -1.138154    0.000027   -0.000006
      2         17           0        0.661817   -0.000004    0.000002
      3          1           0       -1.474040   -0.389555    0.958745
      4          1           0       -1.474008   -0.635697   -0.816651
      5          1           0       -1.473917    1.025165   -0.142084
 ---------------------------------------------------------------------
 Rotational constants (GHZ):         156.0646102          13.1120348          13.1118538
 Standard basis: 6-31+G(d,p) (6D, 7F)
 There are    57 symmetry adapted cartesian basis functions of A   symmetry.
 There are    57 symmetry adapted basis functions of A   symmetry.
    57 basis functions,   109 primitive gaussians,    57 cartesian basis functions
    13 alpha electrons       13 beta electrons
       nuclear repulsion energy        50.9986692188 Hartrees.
 NAtoms=    5 NActive=    5 NUniq=    5 SFac= 1.00D+00 NAtFMM=   60 NAOKFM=F Big=F
 Integral buffers will be    131072 words long.
 Raffenetti 2 integral format.
 Two-electron integral symmetry is turned on.
 ------------------------------------------------------------------------------
 Polarizable Continuum Model (PCM)
 =================================
 Model                : PCM.
 Atomic radii         : SMD-Coulomb.
 Polarization charges : Total charges.
 Charge compensation  : None.
 Solution method      : On-the-fly selection.
 Cavity type          : VdW (van der Waals Surface) (Alpha=1.000).
 Cavity algorithm     : GePol (No added spheres)
                        Default sphere list used, NSphG=    5.
                        Lebedev-Laikov grids with approx.  5.0 points / Ang**2.
                        Smoothing algorithm: York/Karplus (Gamma=1.0000).
                        Polarization charges: spherical gaussians, with
                                              point-specific exponents (IZeta= 3).
                        Self-potential: point-specific (ISelfS= 7).
                        Self-field    : sphere-specific E.n sum rule (ISelfD= 2).
 1st derivatives      : Analytical E(r).r(x)/FMM algorithm (CHGder, D1EAlg=3).
                        Cavity 1st derivative terms included.
 Solvent              : Water, Eps=  78.355300 Eps(inf)=   1.777849
 ------------------------------------------------------------------------------
 Spheres list:
 ISph  on   Nord     Re0    Alpha      Xe            Ye            Ze
    1   C      1    1.8500  1.000     -1.138154      0.000027     -0.000006
    2  Cl      2    2.3800  1.000      0.661817     -0.000004      0.000002
    3   H      3    1.2000  1.000     -1.474040     -0.389555      0.958745
    4   H      4    1.2000  1.000     -1.474008     -0.635697     -0.816651
    5   H      5    1.2000  1.000     -1.473917      1.025165     -0.142084
 ------------------------------------------------------------------------------
 ------------------------------------------------------------------------------
 Atomic radii for non-electrostatic terms: SMD-CDS.
 ------------------------------------------------------------------------------
 Nuclear repulsion after PCM non-electrostatic terms =       51.0023570182 Hartrees.
 One-electron integrals computed using PRISM.
 NBasis=    57 RedAO= T EigKep=  1.40D-03  NBF=    57
 NBsUse=    57 1.00D-06 EigRej= -1.00D+00 NBFU=    57
 ExpMin= 4.38D-02 ExpMax= 2.52D+04 ExpMxC= 3.78D+03 IAcc=3 IRadAn=         5 AccDes= 0.00D+00
 Harris functional with IExCor= 1009 and IRadAn=       5 diagonalized for initial guess.
 HarFok:  IExCor= 1009 AccDes= 0.00D+00 IRadAn=         5 IDoV= 1 UseB2=F ITyADJ=14
 ICtDFT=  3500011 ScaDFX=  1.000000  1.000000  1.000000  1.000000
 FoFCou: FMM=F IPFlag=           0 FMFlag=      100000 FMFlg1=           0
         NFxFlg=           0 DoJE=T BraDBF=F KetDBF=T FulRan=T
         wScrn=  0.000000 ICntrl=       500 IOpCl=  0 I1Cent=   200000004 NGrid=           0
         NMat0=    1 NMatS0=      1 NMatT0=    0 NMatD0=    1 NMtDS0=    0 NMtDT0=    0
 Petite list used in FoFCou.
 Keep R1 ints in memory in canonical form, NReq=10171317.
 Requested convergence on RMS density matrix=1.00D-08 within 128 cycles.
 Requested convergence on MAX density matrix=1.00D-06.
 Requested convergence on             energy=1.00D-06.
 No special actions if energy rises.
 Inv3:  Mode=1 IEnd=     1160652.
 Iteration    1 A*A^-1 deviation from unit magnitude is 2.66D-15 for    192.
 Iteration    1 A*A^-1 deviation from orthogonality  is 1.47D-15 for    186     63.
 Iteration    1 A^-1*A deviation from unit magnitude is 2.66D-15 for    192.
 Iteration    1 A^-1*A deviation from orthogonality  is 1.55D-15 for    565     69.
 Error on total polarization charges =  0.01558
 SCF Done:  E(RM062X) =  -500.052349448     A.U. after   10 cycles
            NFock= 10  Conv=0.24D-08     -V/T= 2.0032
 SMD-CDS (non-electrostatic) energy       (kcal/mol) =       2.31
 (included in total energy above)

 **********************************************************************

            Population analysis using the SCF density.

 **********************************************************************

 Orbital symmetries:
       Occupied  (A) (A) (A) (A) (A) (A) (A) (A) (A) (A) (A) (A)
                 (A)
       Virtual   (A) (A) (A) (A) (A) (A) (A) (A) (A) (A) (A) (A)
                 (A) (A) (A) (A) (A) (A) (A) (A) (A) (A) (A) (A)
                 (A) (A) (A) (A) (A) (A) (A) (A) (A) (A) (A) (A)
                 (A) (A) (A) (A) (A) (A) (A) (A)
 The electronic state is 1-A.
 Alpha  occ. eigenvalues -- -102.65581 -10.59081  -9.80316  -7.52702  -7.52064
 Alpha  occ. eigenvalues --   -7.52064  -0.94591  -0.75688  -0.50616  -0.50611
 Alpha  occ. eigenvalues --   -0.46540  -0.36048  -0.36047
 Alpha virt. eigenvalues --    0.03099   0.03786   0.07171   0.07173   0.09374
 Alpha virt. eigenvalues --    0.11227   0.11228   0.12742   0.18005   0.23062
 Alpha virt. eigenvalues --    0.23065   0.30739   0.60801   0.64170   0.64172
 Alpha virt. eigenvalues --    0.67064   0.67066   0.69162   0.72697   0.91481
 Alpha virt. eigenvalues --    0.91482   0.96842   0.96842   1.02539   1.02544
 Alpha virt. eigenvalues --    1.02612   1.16349   1.33310   1.53301   1.53307
 Alpha virt. eigenvalues --    2.07279   2.12274   2.12287   2.14004   2.38162
 Alpha virt. eigenvalues --    2.38172   2.61846   2.82834   2.82849   3.21505
 Alpha virt. eigenvalues --    3.40290   3.40302   4.32593   4.47445
          Condensed to atoms (all electrons):
               1          2          3          4          5
     1  C    5.269250   0.129309   0.388889   0.388870   0.388878
     2  Cl   0.129309  17.126490  -0.045354  -0.045346  -0.045352
     3  H    0.388889  -0.045354   0.473786  -0.022886  -0.022867
     4  H    0.388870  -0.045346  -0.022886   0.473951  -0.022860
     5  H    0.388878  -0.045352  -0.022867  -0.022860   0.473963
 Mulliken charges:
               1
     1  C   -0.565195
     2  Cl  -0.119747
     3  H    0.228433
     4  H    0.228272
     5  H    0.228237
 Sum of Mulliken charges =  -0.00000
 Mulliken charges with hydrogens summed into heavy atoms:
               1
     1  C    0.119747
     2  Cl  -0.119747
 Electronic spatial extent (au):  <R**2>=            132.3345
 Charge=             -0.0000 electrons
 Dipole moment (field-independent basis, Debye):
    X=             -2.7834    Y=             -0.0004    Z=              0.0005  Tot=              2.7834
 Quadrupole moment (field-independent basis, Debye-Ang):
   XX=            -18.0876   YY=            -20.0346   ZZ=            -20.0349
   XY=              0.0006   XZ=             -0.0006   YZ=             -0.0002
 Traceless Quadrupole moment (field-independent basis, Debye-Ang):
   XX=              1.2981   YY=             -0.6489   ZZ=             -0.6492
   XY=              0.0006   XZ=             -0.0006   YZ=             -0.0002
 Octapole moment (field-independent basis, Debye-Ang**2):
  XXX=             -0.6230  YYY=              0.8894  ZZZ=              0.3914  XYY=             -1.6887
  XXY=             -0.0012  XXZ=              0.0012  XZZ=             -1.6883  YZZ=             -0.8903
  YYZ=             -0.3899  XYZ=              0.0003
 Hexadecapole moment (field-independent basis, Debye-Ang**3):
 XXXX=           -117.3159 YYYY=            -29.3493 ZZZZ=            -29.3475 XXXY=              0.0022
 XXXZ=             -0.0022 YYYX=             -1.3033 YYYZ=             -0.0001 ZZZX=             -0.5732
 ZZZY=             -0.0005 XXYY=            -24.4386 XXZZ=            -24.4386 YYZZ=             -9.7827
 XXYZ=             -0.0005 YYXZ=              0.5714 ZZXY=              1.3046
 N-N= 5.100235701819D+01 E-N=-1.288077310880D+03  KE= 4.984690167253D+02
 D1PCM: PCM CHGder 1st derivatives, ID1Alg=3 FixD1E=F DoIter=F DoCFld=F I1PDM=0.
 Calling FoFJK, ICntrl=      2127 FMM=F ISym2X=0 I1Cent= 0 IOpClX= 0 NMat=1 NMatS=1 NMatT=0.
 ***** Axes restored to original set *****
 -------------------------------------------------------------------
 Center     Atomic                   Forces (Hartrees/Bohr)
 Number     Number              X              Y              Z
 -------------------------------------------------------------------
      1        6           0.000260611   -0.000042350    0.000018789
      2       17           0.000103360    0.000010191    0.000004292
      3        1          -0.000096121    0.000108479   -0.000229363
      4        1          -0.000115447    0.000196554    0.000177124
      5        1          -0.000152402   -0.000272875    0.000029158
 -------------------------------------------------------------------
 Cartesian Forces:  Max     0.000272875 RMS     0.000149746

 GradGradGradGradGradGradGradGradGradGradGradGradGradGradGradGradGradGrad
 Berny optimization.
 FormGI is forming the generalized inverse of G from B-inverse, IUseBI=4.
 Internal  Forces:  Max     0.000212890 RMS     0.000136998
 Search for a local minimum.
 Step number   1 out of a maximum of   24
 All quantities printed in internal units (Hartrees-Bohrs-Radians)
 Mixed Optimization -- En-DIIS/RFO-DIIS
 Second derivative matrix not updated -- first step.
 The second derivative matrix:
                          R1        R2        R3        R4        A1
           R1           0.26119
           R2           0.00000   0.35042
           R3           0.00000   0.00000   0.35039
           R4           0.00000   0.00000   0.00000   0.35040
           A1           0.00000   0.00000   0.00000   0.00000   0.16000
           A2           0.00000   0.00000   0.00000   0.00000   0.00000
           A3           0.00000   0.00000   0.00000   0.00000   0.00000
           A4           0.00000   0.00000   0.00000   0.00000   0.00000
           A5           0.00000   0.00000   0.00000   0.00000   0.00000
           A6           0.00000   0.00000   0.00000   0.00000   0.00000
           D1           0.00000   0.00000   0.00000   0.00000   0.00000
           D2           0.00000   0.00000   0.00000   0.00000   0.00000
           D3           0.00000   0.00000   0.00000   0.00000   0.00000
           D4           0.00000   0.00000   0.00000   0.00000   0.00000
                          A2        A3        A4        A5        A6
           A2           0.16000
           A3           0.00000   0.16000
           A4           0.00000   0.00000   0.16000
           A5           0.00000   0.00000   0.00000   0.16000
           A6           0.00000   0.00000   0.00000   0.00000   0.16000
           D1           0.00000   0.00000   0.00000   0.00000   0.00000
           D2           0.00000   0.00000   0.00000   0.00000   0.00000
           D3           0.00000   0.00000   0.00000   0.00000   0.00000
           D4           0.00000   0.00000   0.00000   0.00000   0.00000
                          D1        D2        D3        D4
           D1           0.00261
           D2           0.00000   0.00261
           D3           0.00000   0.00000   0.00261
           D4           0.00000   0.00000   0.00000   0.00261
 ITU=  0
     Eigenvalues ---    0.04933   0.05633   0.08939   0.16000   0.16000
     Eigenvalues ---    0.26119   0.35039   0.35040   0.35042
 RFO step:  Lambda=-2.03664237D-06 EMin= 4.93287740D-02
 Linear search not attempted -- first point.
 Iteration  1 RMS(Cart)=  0.00100290 RMS(Int)=  0.00000175
 Iteration  2 RMS(Cart)=  0.00000094 RMS(Int)=  0.00000144
 Variable       Old X    -DE/DX   Delta X   Delta X   Delta X     New X
                                 (Linear)    (Quad)   (Total)
    R1        3.40145   0.00010   0.00000   0.00040   0.00040   3.40185
    R2        2.05607  -0.00021   0.00000  -0.00061  -0.00061   2.05546
    R3        2.05612  -0.00021   0.00000  -0.00061  -0.00061   2.05551
    R4        2.05610  -0.00021   0.00000  -0.00061  -0.00061   2.05549
    A1        1.88462   0.00003   0.00000   0.00115   0.00115   1.88578
    A2        1.88459   0.00007   0.00000   0.00131   0.00131   1.88590
    A3        1.88453   0.00016   0.00000   0.00142   0.00142   1.88595
    A4        1.93572   0.00003   0.00000  -0.00087  -0.00087   1.93485
    A5        1.93603  -0.00011   0.00000  -0.00128  -0.00128   1.93474
    A6        1.93610  -0.00016   0.00000  -0.00152  -0.00152   1.93458
    D1        2.06168   0.00009   0.00000   0.00170   0.00170   2.06338
    D2       -2.06182  -0.00007   0.00000  -0.00153  -0.00153  -2.06334
    D3        2.06182   0.00009   0.00000   0.00159   0.00159   2.06340
    D4       -2.15955   0.00016   0.00000   0.00312   0.00311  -2.15644
         Item               Value     Threshold  Converged?
 Maximum Force            0.000213     0.000450     YES
 RMS     Force            0.000137     0.000300     YES
 Maximum Displacement     0.001725     0.001800     YES
 RMS     Displacement     0.001003     0.001200     YES
 Predicted change in Energy=-1.016582D-06
 Optimization completed.
    -- Stationary point found.
                           ----------------------------
                           !   Optimized Parameters   !
                           ! (Angstroms and Degrees)  !
 --------------------------                            --------------------------
 ! Name  Definition              Value          Derivative Info.                !
 --------------------------------------------------------------------------------
 ! R1    R(1,2)                  1.8            -DE/DX =    0.0001              !
 ! R2    R(1,3)                  1.088          -DE/DX =   -0.0002              !
 ! R3    R(1,4)                  1.0881         -DE/DX =   -0.0002              !
 ! R4    R(1,5)                  1.088          -DE/DX =   -0.0002              !
 ! A1    A(2,1,3)              107.981          -DE/DX =    0.0                 !
 ! A2    A(2,1,4)              107.979          -DE/DX =    0.0001              !
 ! A3    A(2,1,5)              107.9756         -DE/DX =    0.0002              !
 ! A4    A(3,1,4)              110.9088         -DE/DX =    0.0                 !
 ! A5    A(3,1,5)              110.9261         -DE/DX =   -0.0001              !
 ! A6    A(4,1,5)              110.9305         -DE/DX =   -0.0002              !
 ! D1    D(2,1,4,3)            118.1255         -DE/DX =    0.0001              !
 ! D2    D(2,1,5,3)           -118.1334         -DE/DX =   -0.0001              !
 ! D3    D(2,1,5,4)            118.1334         -DE/DX =    0.0001              !
 ! D4    D(3,1,5,4)           -123.7332         -DE/DX =    0.0002              !
 --------------------------------------------------------------------------------
 GradGradGradGradGradGradGradGradGradGradGradGradGradGradGradGradGradGrad

                          Input orientation:                          
 ---------------------------------------------------------------------
 Center     Atomic      Atomic             Coordinates (Angstroms)
 Number     Number       Type             X           Y           Z
 ---------------------------------------------------------------------
      1          6           0       -1.138154    0.000027   -0.000006
      2         17           0        0.661817   -0.000004    0.000002
      3          1           0       -1.474040   -0.390246    0.958463
      4          1           0       -1.474008   -0.635108   -0.817110
      5          1           0       -1.473917    1.025267   -0.141345
 ---------------------------------------------------------------------
                    Distance matrix (angstroms):
                    1          2          3          4          5
     1  C    0.000000
     2  Cl   1.799971   0.000000
     3  H    1.088024   2.373357   0.000000
     4  H    1.088050   2.373347   1.792377   0.000000
     5  H    1.088040   2.373293   1.792555   1.792625   0.000000
 Stoichiometry    CH3Cl
 Framework group  C1[X(CH3Cl)]
 Deg. of freedom     9
 Full point group                 C1      NOp   1
 Largest Abelian subgroup         C1      NOp   1
 Largest concise Abelian subgroup C1      NOp   1
                         Standard orientation:                         
 ---------------------------------------------------------------------
 Center     Atomic      Atomic             Coordinates (Angstroms)
 Number     Number       Type             X           Y           Z
 ---------------------------------------------------------------------
      1          6           0       -1.138154    0.000027   -0.000006
      2         17           0        0.661817   -0.000004    0.000002
      3          1           0       -1.474040   -0.389555    0.958745
      4          1           0       -1.474008   -0.635697   -0.816651
      5          1           0       -1.473917    1.025165   -0.142084
 ---------------------------------------------------------------------
 Rotational constants (GHZ):         156.0646102          13.1120348          13.1118538
 1\1\GINC-ANMOL\FOpt\RM062X\6-31+G(d,p)\C1H3Cl1\ANMOL\22-Jul-2024\0\\# 
 opt freq=noraman 6-31+g(d,p) scrf=(smd,solvent=water) m062x\\Title Car
 d Required\\0,1\C,-1.138154,0.000027,-0.000006\Cl,0.661817,-0.000004,0
 .000002\H,-1.47404,-0.390246,0.958463\H,-1.474008,-0.635108,-0.81711\H
 ,-1.473917,1.025267,-0.141345\\Version=ES64L-G16RevA.03\State=1-A\HF=-
 500.0523494\RMSD=2.378e-09\RMSF=1.497e-04\Dipole=-1.0950631,-0.0001398
 ,0.0002081\Quadrupole=0.9651358,-0.4824516,-0.4826842,0.0004128,-0.000
 4751,-0.0001623\PG=C01 [X(C1H3Cl1)]\\@


 MOST BUREAUCRACIES FUNCTION LIKE A SEPTIC TANK.
 THE LARGE CHUNKS RISE TO THE TOP.
 Job cpu time:       0 days  0 hours  0 minutes 22.3 seconds.
 Elapsed time:       0 days  0 hours  0 minutes  2.3 seconds.
 File lengths (MBytes):  RWF=     13 Int=      0 D2E=      0 Chk=      2 Scr=      1
 Normal termination of Gaussian 16 at Mon Jul 22 16:24:11 2024.
 Link1:  Proceeding to internal job step number  2.
 ----------------------------------------------------------------------
 #N Geom=AllCheck Guess=TCheck SCRF=Check GenChk RM062X/6-31+G(d,p) Fre
 q
 ----------------------------------------------------------------------
 1/10=4,29=7,30=1,38=1,40=1/1,3;
 2/12=2,40=1/2;
 3/5=1,6=6,7=111,11=2,14=-4,25=1,30=1,70=2,71=2,74=-55,116=1,140=1/1,2,3;
 4/5=101/1;
 5/5=2,38=6,98=1/2;
 8/6=4,10=90,11=11/1;
 11/6=1,8=1,9=11,15=111,16=1/1,2,10;
 10/6=1/2;
 6/7=2,8=2,9=2,10=2,28=1/1;
 7/8=1,10=1,25=1/1,2,3,16;
 1/10=4,30=1/3;
 99//99;
 Structure from the checkpoint file:  "/home/anmol/scrh/Gau-432006.chk"
 -------------------
 Title Card Required
 -------------------
 Charge =  0 Multiplicity = 1
 Redundant internal coordinates found in file.  (old form).
 C,0,-1.138154,0.000027,-0.000006
 Cl,0,0.661817,-0.000004,0.000002
 H,0,-1.47404,-0.390246,0.958463
 H,0,-1.474008,-0.635108,-0.81711
 H,0,-1.473917,1.025267,-0.141345
 Recover connectivity data from disk.

 GradGradGradGradGradGradGradGradGradGradGradGradGradGradGradGradGradGrad
 Berny optimization.
 Initialization pass.
                           ----------------------------
                           !    Initial Parameters    !
                           ! (Angstroms and Degrees)  !
 --------------------------                            --------------------------
 ! Name  Definition              Value          Derivative Info.                !
 --------------------------------------------------------------------------------
 ! R1    R(1,2)                  1.8            calculate D2E/DX2 analytically  !
 ! R2    R(1,3)                  1.088          calculate D2E/DX2 analytically  !
 ! R3    R(1,4)                  1.0881         calculate D2E/DX2 analytically  !
 ! R4    R(1,5)                  1.088          calculate D2E/DX2 analytically  !
 ! A1    A(2,1,3)              107.981          calculate D2E/DX2 analytically  !
 ! A2    A(2,1,4)              107.979          calculate D2E/DX2 analytically  !
 ! A3    A(2,1,5)              107.9756         calculate D2E/DX2 analytically  !
 ! A4    A(3,1,4)              110.9088         calculate D2E/DX2 analytically  !
 ! A5    A(3,1,5)              110.9261         calculate D2E/DX2 analytically  !
 ! A6    A(4,1,5)              110.9305         calculate D2E/DX2 analytically  !
 ! D1    D(2,1,4,3)            118.1255         calculate D2E/DX2 analytically  !
 ! D2    D(2,1,5,3)           -118.1334         calculate D2E/DX2 analytically  !
 ! D3    D(2,1,5,4)            118.1334         calculate D2E/DX2 analytically  !
 ! D4    D(3,1,5,4)           -123.7332         calculate D2E/DX2 analytically  !
 --------------------------------------------------------------------------------
 Trust Radius=3.00D-01 FncErr=1.00D-07 GrdErr=1.00D-07 EigMax=2.50D+02 EigMin=1.00D-04
 Number of steps in this run=      2 maximum allowed number of steps=      2.
 GradGradGradGradGradGradGradGradGradGradGradGradGradGradGradGradGradGrad

                          Input orientation:                          
 ---------------------------------------------------------------------
 Center     Atomic      Atomic             Coordinates (Angstroms)
 Number     Number       Type             X           Y           Z
 ---------------------------------------------------------------------
      1          6           0       -1.138154    0.000027   -0.000006
      2         17           0        0.661817   -0.000004    0.000002
      3          1           0       -1.474040   -0.390246    0.958463
      4          1           0       -1.474008   -0.635108   -0.817110
      5          1           0       -1.473917    1.025267   -0.141345
 ---------------------------------------------------------------------
                    Distance matrix (angstroms):
                    1          2          3          4          5
     1  C    0.000000
     2  Cl   1.799971   0.000000
     3  H    1.088024   2.373357   0.000000
     4  H    1.088050   2.373347   1.792377   0.000000
     5  H    1.088040   2.373293   1.792555   1.792625   0.000000
 Stoichiometry    CH3Cl
 Framework group  C1[X(CH3Cl)]
 Deg. of freedom     9
 Full point group                 C1      NOp   1
 Largest Abelian subgroup         C1      NOp   1
 Largest concise Abelian subgroup C1      NOp   1
                         Standard orientation:                         
 ---------------------------------------------------------------------
 Center     Atomic      Atomic             Coordinates (Angstroms)
 Number     Number       Type             X           Y           Z
 ---------------------------------------------------------------------
      1          6           0       -1.138154    0.000027   -0.000006
      2         17           0        0.661817   -0.000004    0.000002
      3          1           0       -1.474040   -0.389555    0.958745
      4          1           0       -1.474008   -0.635697   -0.816651
      5          1           0       -1.473917    1.025165   -0.142084
 ---------------------------------------------------------------------
 Rotational constants (GHZ):         156.0646102          13.1120348          13.1118538
 Standard basis: 6-31+G(d,p) (6D, 7F)
 There are    57 symmetry adapted cartesian basis functions of A   symmetry.
 There are    57 symmetry adapted basis functions of A   symmetry.
    57 basis functions,   109 primitive gaussians,    57 cartesian basis functions
    13 alpha electrons       13 beta electrons
       nuclear repulsion energy        50.9986692188 Hartrees.
 NAtoms=    5 NActive=    5 NUniq=    5 SFac= 1.00D+00 NAtFMM=   60 NAOKFM=F Big=F
 Integral buffers will be    131072 words long.
 Raffenetti 2 integral format.
 Two-electron integral symmetry is turned on.
 Force inversion solution in PCM.
 ------------------------------------------------------------------------------
 Polarizable Continuum Model (PCM)
 =================================
 Model                : PCM.
 Atomic radii         : SMD-Coulomb.
 Polarization charges : Total charges.
 Charge compensation  : None.
 Solution method      : Matrix inversion.
 Cavity type          : VdW (van der Waals Surface) (Alpha=1.000).
 Cavity algorithm     : GePol (No added spheres)
                        Default sphere list used, NSphG=    5.
                        Lebedev-Laikov grids with approx.  5.0 points / Ang**2.
                        Smoothing algorithm: York/Karplus (Gamma=1.0000).
                        Polarization charges: spherical gaussians, with
                                              point-specific exponents (IZeta= 3).
                        Self-potential: point-specific (ISelfS= 7).
                        Self-field    : sphere-specific E.n sum rule (ISelfD= 2).
 1st derivatives      : Analytical E(r).r(x)/FMM algorithm (CHGder, D1EAlg=3).
                        Cavity 1st derivative terms included.
 2nd derivatives      : Analytical E(r).r(xy)/FMM algorithm (CHGder, D2EAlg=3).
                        Cavity 2nd derivative terms included.
 Solvent              : Water, Eps=  78.355300 Eps(inf)=   1.777849
 ------------------------------------------------------------------------------
 Spheres list:
 ISph  on   Nord     Re0    Alpha      Xe            Ye            Ze
    1   C      1    1.8500  1.000     -1.138154      0.000027     -0.000006
    2  Cl      2    2.3800  1.000      0.661817     -0.000004      0.000002
    3   H      3    1.2000  1.000     -1.474040     -0.389555      0.958745
    4   H      4    1.2000  1.000     -1.474008     -0.635697     -0.816651
    5   H      5    1.2000  1.000     -1.473917      1.025165     -0.142084
 ------------------------------------------------------------------------------
 ------------------------------------------------------------------------------
 Atomic radii for non-electrostatic terms: SMD-CDS.
 ------------------------------------------------------------------------------
 Nuclear repulsion after PCM non-electrostatic terms =       51.0023570182 Hartrees.
 One-electron integrals computed using PRISM.
 NBasis=    57 RedAO= T EigKep=  1.40D-03  NBF=    57
 NBsUse=    57 1.00D-06 EigRej= -1.00D+00 NBFU=    57
 Initial guess from the checkpoint file:  "/home/anmol/scrh/Gau-432006.chk"
 B after Tr=     0.000000    0.000000   -0.000000
         Rot=    1.000000   -0.000000    0.000000    0.000000 Ang=   0.00 deg.
 Keep R1 ints in memory in canonical form, NReq=10171317.
 Requested convergence on RMS density matrix=1.00D-08 within 128 cycles.
 Requested convergence on MAX density matrix=1.00D-06.
 Requested convergence on             energy=1.00D-06.
 No special actions if energy rises.
 Inv3:  Mode=1 IEnd=     1160652.
 Iteration    1 A*A^-1 deviation from unit magnitude is 3.22D-15 for    213.
 Iteration    1 A*A^-1 deviation from orthogonality  is 1.11D-15 for    401    319.
 Iteration    1 A^-1*A deviation from unit magnitude is 2.89D-15 for    213.
 Iteration    1 A^-1*A deviation from orthogonality  is 1.11D-15 for    523    188.
 Error on total polarization charges =  0.01558
 SCF Done:  E(RM062X) =  -500.052349448     A.U. after    1 cycles
            NFock=  1  Conv=0.23D-09     -V/T= 2.0032
 SMD-CDS (non-electrostatic) energy       (kcal/mol) =       2.31
 (included in total energy above)
 DoSCS=F DFT=T ScalE2(SS,OS)=  1.000000  1.000000
 Range of M.O.s used for correlation:     1    57
 NBasis=    57 NAE=    13 NBE=    13 NFC=     0 NFV=     0
 NROrb=     57 NOA=    13 NOB=    13 NVA=    44 NVB=    44

 **** Warning!!: The largest alpha MO coefficient is  0.14474334D+02

 Symmetrizing basis deriv contribution to polar:
 IMax=3 JMax=2 DiffMx= 0.00D+00
 G2DrvN: will do     6 centers at a time, making    1 passes.
 Calling FoFCou, ICntrl=  3107 FMM=F I1Cent=   0 AccDes= 0.00D+00.
 NEqPCM:  Using equilibrium solvation (IEInf=0, Eps=  78.3553, EpsInf=   1.7778)
 G2PCM: DoFxE=T DoFxN=T DoGrad=T DoDP/DQ/DG/TGxP=FFFF NFrqRd=   0 IEInf=0 SqF1=F DoCFld=F IF1Alg=4.
 End of G2Drv F.D. properties file   721 does not exist.
 End of G2Drv F.D. properties file   722 does not exist.
 End of G2Drv F.D. properties file   788 does not exist.
          IDoAtm=11111
 NEqPCM:  Using equilibrium solvation (IEInf=0, Eps=  78.3553, EpsInf=   1.7778)
          Differentiating once with respect to electric field.
                with respect to dipole field.
          Differentiating once with respect to nuclear coordinates.
 Keep R1 ints in memory in canonical form, NReq=10140912.
          There are    18 degrees of freedom in the 1st order CPHF.  IDoFFX=6 NUNeed=     3.
     15 vectors produced by pass  0 Test12= 3.18D-15 5.56D-09 XBig12= 1.33D+01 2.36D+00.
 AX will form    15 AO Fock derivatives at one time.
     15 vectors produced by pass  1 Test12= 3.18D-15 5.56D-09 XBig12= 9.82D-01 2.50D-01.
     15 vectors produced by pass  2 Test12= 3.18D-15 5.56D-09 XBig12= 1.48D-02 3.35D-02.
     15 vectors produced by pass  3 Test12= 3.18D-15 5.56D-09 XBig12= 4.28D-05 2.01D-03.
     15 vectors produced by pass  4 Test12= 3.18D-15 5.56D-09 XBig12= 1.36D-07 1.05D-04.
     15 vectors produced by pass  5 Test12= 3.18D-15 5.56D-09 XBig12= 8.28D-10 9.14D-06.
      5 vectors produced by pass  6 Test12= 3.18D-15 5.56D-09 XBig12= 5.21D-12 6.15D-07.
      3 vectors produced by pass  7 Test12= 3.18D-15 5.56D-09 XBig12= 1.03D-14 2.94D-08.
 InvSVY:  IOpt=1 It=  1 EMax= 8.88D-16
 Solved reduced A of dimension    98 with    15 vectors.
 Isotropic polarizability for W=    0.000000       28.34 Bohr**3.
 End of Minotr F.D. properties file   721 does not exist.
 End of Minotr F.D. properties file   722 does not exist.
 End of Minotr F.D. properties file   788 does not exist.

 **********************************************************************

            Population analysis using the SCF density.

 **********************************************************************

 Orbital symmetries:
       Occupied  (A) (A) (A) (A) (A) (A) (A) (A) (A) (A) (A) (A)
                 (A)
       Virtual   (A) (A) (A) (A) (A) (A) (A) (A) (A) (A) (A) (A)
                 (A) (A) (A) (A) (A) (A) (A) (A) (A) (A) (A) (A)
                 (A) (A) (A) (A) (A) (A) (A) (A) (A) (A) (A) (A)
                 (A) (A) (A) (A) (A) (A) (A) (A)
 The electronic state is 1-A.
 Alpha  occ. eigenvalues -- -102.65581 -10.59081  -9.80316  -7.52702  -7.52064
 Alpha  occ. eigenvalues --   -7.52064  -0.94591  -0.75688  -0.50616  -0.50611
 Alpha  occ. eigenvalues --   -0.46540  -0.36048  -0.36047
 Alpha virt. eigenvalues --    0.03099   0.03786   0.07171   0.07173   0.09374
 Alpha virt. eigenvalues --    0.11227   0.11228   0.12742   0.18005   0.23062
 Alpha virt. eigenvalues --    0.23065   0.30739   0.60801   0.64170   0.64172
 Alpha virt. eigenvalues --    0.67064   0.67066   0.69162   0.72697   0.91481
 Alpha virt. eigenvalues --    0.91482   0.96842   0.96842   1.02539   1.02544
 Alpha virt. eigenvalues --    1.02612   1.16349   1.33310   1.53301   1.53307
 Alpha virt. eigenvalues --    2.07279   2.12274   2.12287   2.14004   2.38162
 Alpha virt. eigenvalues --    2.38172   2.61846   2.82834   2.82849   3.21505
 Alpha virt. eigenvalues --    3.40290   3.40302   4.32593   4.47445
          Condensed to atoms (all electrons):
               1          2          3          4          5
     1  C    5.269250   0.129309   0.388889   0.388870   0.388878
     2  Cl   0.129309  17.126490  -0.045354  -0.045346  -0.045352
     3  H    0.388889  -0.045354   0.473786  -0.022886  -0.022867
     4  H    0.388870  -0.045346  -0.022886   0.473951  -0.022860
     5  H    0.388878  -0.045352  -0.022867  -0.022860   0.473963
 Mulliken charges:
               1
     1  C   -0.565195
     2  Cl  -0.119747
     3  H    0.228433
     4  H    0.228272
     5  H    0.228237
 Sum of Mulliken charges =   0.00000
 Mulliken charges with hydrogens summed into heavy atoms:
               1
     1  C    0.119747
     2  Cl  -0.119747
 APT charges:
               1
     1  C    0.360207
     2  Cl  -0.427801
     3  H    0.022134
     4  H    0.022817
     5  H    0.022644
 Sum of APT charges =   0.00000
 APT charges with hydrogens summed into heavy atoms:
               1
     1  C    0.427801
     2  Cl  -0.427801
 Electronic spatial extent (au):  <R**2>=            132.3345
 Charge=              0.0000 electrons
 Dipole moment (field-independent basis, Debye):
    X=             -2.7834    Y=             -0.0004    Z=              0.0005  Tot=              2.7834
 Quadrupole moment (field-independent basis, Debye-Ang):
   XX=            -18.0876   YY=            -20.0346   ZZ=            -20.0349
   XY=              0.0006   XZ=             -0.0006   YZ=             -0.0002
 Traceless Quadrupole moment (field-independent basis, Debye-Ang):
   XX=              1.2981   YY=             -0.6489   ZZ=             -0.6492
   XY=              0.0006   XZ=             -0.0006   YZ=             -0.0002
 Octapole moment (field-independent basis, Debye-Ang**2):
  XXX=             -0.6230  YYY=              0.8894  ZZZ=              0.3914  XYY=             -1.6887
  XXY=             -0.0012  XXZ=              0.0012  XZZ=             -1.6883  YZZ=             -0.8903
  YYZ=             -0.3899  XYZ=              0.0003
 Hexadecapole moment (field-independent basis, Debye-Ang**3):
 XXXX=           -117.3159 YYYY=            -29.3493 ZZZZ=            -29.3475 XXXY=              0.0022
 XXXZ=             -0.0022 YYYX=             -1.3033 YYYZ=             -0.0001 ZZZX=             -0.5732
 ZZZY=             -0.0005 XXYY=            -24.4386 XXZZ=            -24.4386 YYZZ=             -9.7827
 XXYZ=             -0.0005 YYXZ=              0.5714 ZZXY=              1.3046
 N-N= 5.100235701819D+01 E-N=-1.288077310892D+03  KE= 4.984690167298D+02
  Exact polarizability:  36.799  -0.015  24.117   0.006   0.002  24.100
 Approx polarizability:  31.858   0.001  20.568   0.000   0.000  20.566
 D2PCM: PCM CHGder 2nd derivatives, FixD1E=F FixD2E=F DoIter=F DoCFld=F I1PDM=0
 Calling FoFJK, ICntrl=    100127 FMM=F ISym2X=0 I1Cent= 0 IOpClX= 0 NMat=1 NMatS=1 NMatT=0.
 Full mass-weighted force constant matrix:
 Low frequencies ---   -0.0063   -0.0041   -0.0020   28.5317   34.2539   81.8216
 Low frequencies ---  727.9282 1051.7154 1052.6747
 Diagonal vibrational polarizability:
        3.3246900       0.2751348       0.2798252
 Harmonic frequencies (cm**-1), IR intensities (KM/Mole), Raman scattering
 activities (A**4/AMU), depolarization ratios for plane and unpolarized
 incident light, reduced masses (AMU), force constants (mDyne/A),
 and normal coordinates:
                      1                      2                      3
                      A                      A                      A
 Frequencies --    727.9268              1051.7124              1052.6695
 Red. masses --      7.4307                 1.1696                 1.1705
 Frc consts  --      2.3198                 0.7622                 0.7642
 IR Inten    --     60.1967                 3.5510                 3.6460
  Atom  AN      X      Y      Z        X      Y      Z        X      Y      Z
     1   6     0.62  -0.00   0.00    -0.00   0.09   0.07     0.00   0.07  -0.09
     2  17    -0.25   0.00  -0.00    -0.00  -0.02  -0.01    -0.00  -0.01   0.02
     3   1     0.42   0.02  -0.06    -0.23  -0.24  -0.14     0.71  -0.13   0.07
     4   1     0.42   0.04   0.05     0.74  -0.12  -0.06    -0.15  -0.21   0.19
     5   1     0.42  -0.06   0.01    -0.50  -0.11  -0.20    -0.56  -0.06   0.20
                      4                      5                      6
                      A                      A                      A
 Frequencies --   1401.1684              1471.0881              1472.1304
 Red. masses --      1.1259                 1.0519                 1.0513
 Frc consts  --      1.3024                 1.3412                 1.3424
 IR Inten    --     15.6254                14.9790                15.1416
  Atom  AN      X      Y      Z        X      Y      Z        X      Y      Z
     1   6    -0.10  -0.00  -0.00     0.00  -0.03  -0.06     0.00  -0.06   0.03
     2  17    -0.01   0.00   0.00    -0.00  -0.00  -0.00     0.00  -0.00   0.00
     3   1     0.55  -0.07   0.18    -0.22   0.55   0.12     0.25   0.40   0.28
     4   1     0.54  -0.12  -0.15     0.32  -0.20  -0.03     0.06   0.55  -0.46
     5   1     0.54   0.19  -0.03    -0.11   0.05   0.69    -0.32  -0.17  -0.21
                      7                      8                      9
                      A                      A                      A
 Frequencies --   3120.4875              3233.9958              3235.5804
 Red. masses --      1.0271                 1.1107                 1.1106
 Frc consts  --      5.8926                 6.8440                 6.8506
 IR Inten    --     19.2669                 1.0783                 1.1549
  Atom  AN      X      Y      Z        X      Y      Z        X      Y      Z
     1   6     0.04  -0.00   0.00     0.00  -0.08  -0.06     0.00   0.06  -0.08
     2  17    -0.00   0.00  -0.00    -0.00   0.00   0.00     0.00  -0.00   0.00
     3   1    -0.16  -0.21   0.51    -0.06  -0.08   0.16    -0.23  -0.28   0.71
     4   1    -0.17  -0.34  -0.44     0.23   0.45   0.59     0.07   0.14   0.16
     5   1    -0.17   0.55  -0.08    -0.17   0.56  -0.09     0.16  -0.53   0.06

 -------------------
 - Thermochemistry -
 -------------------
 Temperature   298.150 Kelvin.  Pressure   1.00000 Atm.
 Atom     1 has atomic number  6 and mass  12.00000
 Atom     2 has atomic number 17 and mass  34.96885
 Atom     3 has atomic number  1 and mass   1.00783
 Atom     4 has atomic number  1 and mass   1.00783
 Atom     5 has atomic number  1 and mass   1.00783
 Molecular mass:    49.99233 amu.
 Principal axes and moments of inertia in atomic units:
                           1         2         3
     Eigenvalues --    11.56406 137.64006 137.64196
           X            1.00000   0.00001  -0.00000
           Y           -0.00001   1.00000   0.00000
           Z            0.00000  -0.00000   1.00000
 This molecule is an asymmetric top.
 Rotational symmetry number  1.
 Rotational temperatures (Kelvin)      7.48992     0.62928     0.62927
 Rotational constants (GHZ):         156.06461    13.11203    13.11185
 Zero-point vibrational energy     100287.5 (Joules/Mol)
                                   23.96929 (Kcal/Mol)
 Vibrational temperatures:   1047.32  1513.18  1514.56  2015.97  2116.57
          (Kelvin)           2118.07  4489.69  4653.00  4655.28
 
 Zero-point correction=                           0.038197 (Hartree/Particle)
 Thermal correction to Energy=                    0.041211
 Thermal correction to Enthalpy=                  0.042155
 Thermal correction to Gibbs Free Energy=         0.014529
 Sum of electronic and zero-point Energies=           -500.014152
 Sum of electronic and thermal Energies=              -500.011139
 Sum of electronic and thermal Enthalpies=            -500.010195
 Sum of electronic and thermal Free Energies=         -500.037820
 
                     E (Thermal)             CV                S
                      KCal/Mol        Cal/Mol-Kelvin    Cal/Mol-Kelvin
 Total                   25.860              7.656             58.143
 Electronic               0.000              0.000              0.000
 Translational            0.889              2.981             37.651
 Rotational               0.889              2.981             20.021
 Vibrational             24.083              1.695              0.471
                       Q            Log10(Q)             Ln(Q)
 Total Bot       0.207561D-06         -6.682855        -15.387841
 Total V=0       0.770469D+11         10.886755         25.067680
 Vib (Bot)       0.281960D-17        -17.549812        -40.409936
 Vib (V=0)       0.104664D+01          0.019797          0.045585
 Electronic      0.100000D+01          0.000000          0.000000
 Translational   0.138934D+08          7.142809         16.446925
 Rotational      0.529845D+04          3.724149          8.575169
 ***** Axes restored to original set *****
 -------------------------------------------------------------------
 Center     Atomic                   Forces (Hartrees/Bohr)
 Number     Number              X              Y              Z
 -------------------------------------------------------------------
      1        6           0.000260608   -0.000042350    0.000018789
      2       17           0.000103362    0.000010191    0.000004292
      3        1          -0.000096121    0.000108479   -0.000229364
      4        1          -0.000115447    0.000196555    0.000177124
      5        1          -0.000152402   -0.000272875    0.000029158
 -------------------------------------------------------------------
 Cartesian Forces:  Max     0.000272875 RMS     0.000149745
 FormGI is forming the generalized inverse of G from B-inverse, IUseBI=4.

 GradGradGradGradGradGradGradGradGradGradGradGradGradGradGradGradGradGrad
 Berny optimization.
 Internal  Forces:  Max     0.000212891 RMS     0.000136998
 Search for a local minimum.
 Step number   1 out of a maximum of    2
 All quantities printed in internal units (Hartrees-Bohrs-Radians)
 Second derivative matrix not updated -- analytic derivatives used.
 The second derivative matrix:
                          R1        R2        R3        R4        A1
           R1           0.21917
           R2           0.00354   0.36130
           R3           0.00351   0.00150   0.36070
           R4           0.00321   0.00148   0.00149   0.36085
           A1           0.00543  -0.00216   0.00042  -0.00019   0.02323
           A2           0.00871   0.00094  -0.00253  -0.00168  -0.00877
           A3           0.01658  -0.00146  -0.00098  -0.00457  -0.01724
           A4          -0.00145   0.00373   0.00347  -0.00678  -0.00884
           A5          -0.01287   0.00622  -0.00703   0.00606  -0.01157
           A6          -0.01465  -0.00741   0.00647   0.00678   0.02303
           D1           0.01104   0.00008   0.00096  -0.00512   0.01782
           D2          -0.00929  -0.00004   0.00411  -0.00047  -0.01112
           D3           0.01226  -0.00399   0.00004  -0.00093  -0.00793
           D4           0.02155  -0.00395  -0.00408  -0.00046   0.00319
                          A2        A3        A4        A5        A6
           A2           0.04455
           A3          -0.03048   0.08782
           A4          -0.00168   0.02485   0.03903
           A5           0.02405  -0.03624  -0.02341   0.07135
           A6          -0.02736  -0.02644  -0.02912  -0.02554   0.08368
           D1           0.01542  -0.02520   0.01057  -0.01285  -0.00531
           D2           0.01539  -0.01165   0.00905  -0.00480   0.00271
           D3           0.01992   0.00118  -0.00363  -0.00743  -0.00137
           D4           0.00453   0.01283  -0.01267  -0.00263  -0.00408
                          D1        D2        D3        D4
           D1           0.03704
           D2           0.00101   0.02332
           D3           0.00038   0.01316   0.02412
           D4          -0.00063  -0.01016   0.01096   0.02112
 ITU=  0
     Eigenvalues ---    0.03895   0.05326   0.07837   0.12771   0.14404
     Eigenvalues ---    0.23009   0.35999   0.36049   0.36439
 Angle between quadratic step and forces=  47.40 degrees.
 Linear search not attempted -- first point.
 Iteration  1 RMS(Cart)=  0.00099651 RMS(Int)=  0.00000233
 Iteration  2 RMS(Cart)=  0.00000126 RMS(Int)=  0.00000189
 Iteration  3 RMS(Cart)=  0.00000000 RMS(Int)=  0.00000189
 Variable       Old X    -DE/DX   Delta X   Delta X   Delta X     New X
                                 (Linear)    (Quad)   (Total)
    R1        3.40145   0.00010   0.00000  -0.00055  -0.00055   3.40090
    R2        2.05607  -0.00021   0.00000  -0.00051  -0.00051   2.05556
    R3        2.05612  -0.00021   0.00000  -0.00050  -0.00050   2.05562
    R4        2.05610  -0.00021   0.00000  -0.00048  -0.00048   2.05562
    A1        1.88462   0.00003   0.00000   0.00135   0.00135   1.88598
    A2        1.88459   0.00007   0.00000   0.00149   0.00149   1.88608
    A3        1.88453   0.00016   0.00000   0.00160   0.00160   1.88612
    A4        1.93572   0.00003   0.00000  -0.00095  -0.00095   1.93477
    A5        1.93603  -0.00011   0.00000  -0.00146  -0.00146   1.93456
    A6        1.93610  -0.00016   0.00000  -0.00178  -0.00178   1.93432
    D1        2.06168   0.00009   0.00000   0.00200   0.00200   2.06368
    D2       -2.06182  -0.00007   0.00000  -0.00177  -0.00177  -2.06359
    D3        2.06182   0.00009   0.00000   0.00176   0.00176   2.06358
    D4       -2.15955   0.00016   0.00000   0.00354   0.00353  -2.15602
         Item               Value     Threshold  Converged?
 Maximum Force            0.000213     0.000450     YES
 RMS     Force            0.000137     0.000300     YES
 Maximum Displacement     0.001755     0.001800     YES
 RMS     Displacement     0.000997     0.001200     YES
 Predicted change in Energy=-1.049747D-06
 Optimization completed.
    -- Stationary point found.
                           ----------------------------
                           !   Optimized Parameters   !
                           ! (Angstroms and Degrees)  !
 --------------------------                            --------------------------
 ! Name  Definition              Value          Derivative Info.                !
 --------------------------------------------------------------------------------
 ! R1    R(1,2)                  1.8            -DE/DX =    0.0001              !
 ! R2    R(1,3)                  1.088          -DE/DX =   -0.0002              !
 ! R3    R(1,4)                  1.0881         -DE/DX =   -0.0002              !
 ! R4    R(1,5)                  1.088          -DE/DX =   -0.0002              !
 ! A1    A(2,1,3)              107.981          -DE/DX =    0.0                 !
 ! A2    A(2,1,4)              107.979          -DE/DX =    0.0001              !
 ! A3    A(2,1,5)              107.9756         -DE/DX =    0.0002              !
 ! A4    A(3,1,4)              110.9088         -DE/DX =    0.0                 !
 ! A5    A(3,1,5)              110.9261         -DE/DX =   -0.0001              !
 ! A6    A(4,1,5)              110.9305         -DE/DX =   -0.0002              !
 ! D1    D(2,1,4,3)            118.1255         -DE/DX =    0.0001              !
 ! D2    D(2,1,5,3)           -118.1334         -DE/DX =   -0.0001              !
 ! D3    D(2,1,5,4)            118.1334         -DE/DX =    0.0001              !
 ! D4    D(3,1,5,4)           -123.7332         -DE/DX =    0.0002              !
 --------------------------------------------------------------------------------
 GradGradGradGradGradGradGradGradGradGradGradGradGradGradGradGradGradGrad


 ----------------------------------------------------------------------

 Electric dipole moment (input orientation):
 (Debye = 10**-18 statcoulomb cm , SI units = C m)
                  (au)            (Debye)         (10**-30 SI)
   Tot        0.109506D+01      0.278337D+01      0.928433D+01
   x         -0.109506D+01     -0.278337D+01     -0.928433D+01
   y         -0.139777D-03     -0.355277D-03     -0.118508D-02
   z          0.208076D-03      0.528877D-03      0.176414D-02

 Dipole polarizability, Alpha (input orientation).
 (esu units = cm**3 , SI units = C**2 m**2 J**-1)
 Alpha(0;0):
               (au)            (10**-24 esu)      (10**-40 SI)
   iso        0.283386D+02      0.419935D+01      0.467241D+01
   aniso      0.126903D+02      0.188050D+01      0.209234D+01
   xx         0.367988D+02      0.545302D+01      0.606730D+01
   yx        -0.154062D-01     -0.228296D-02     -0.254014D-02
   yy         0.241171D+02      0.357378D+01      0.397637D+01
   zx         0.587714D-02      0.870902D-03      0.969009D-03
   zy         0.211511D-02      0.313426D-03      0.348734D-03
   zz         0.241001D+02      0.357126D+01      0.397356D+01

 ----------------------------------------------------------------------

 Dipole orientation:
     6         -0.00042006          0.00032550          2.15079928
    17          0.00024144         -0.00016716         -1.25065284
     1          1.81079730         -0.73687137          2.78597011
     1         -1.54449023         -1.20002178          2.78533114
     1         -0.26787988          1.93779516          2.78500133

 Electric dipole moment (dipole orientation):
 (Debye = 10**-18 statcoulomb cm , SI units = C m)
                  (au)            (Debye)         (10**-30 SI)
   Tot        0.109506D+01      0.278337D+01      0.928433D+01
   x          0.000000D+00      0.000000D+00      0.000000D+00
   y          0.000000D+00      0.000000D+00      0.000000D+00
   z          0.109506D+01      0.278337D+01      0.928433D+01

 Dipole polarizability, Alpha (dipole orientation).
 (esu units = cm**3 , SI units = C**2 m**2 J**-1)
 Alpha(0;0):
               (au)            (10**-24 esu)      (10**-40 SI)
   iso        0.283386D+02      0.419935D+01      0.467241D+01
   aniso      0.126903D+02      0.188050D+01      0.209234D+01
   xx         0.241001D+02      0.357126D+01      0.397356D+01
   yx         0.210895D-02      0.312514D-03      0.347718D-03
   yy         0.241171D+02      0.357378D+01      0.397637D+01
   zx        -0.829251D-02     -0.122882D-02     -0.136725D-02
   zy         0.170243D-01      0.252274D-02      0.280692D-02
   zz         0.367988D+02      0.545302D+01      0.606730D+01

 ----------------------------------------------------------------------
 1\1\GINC-ANMOL\Freq\RM062X\6-31+G(d,p)\C1H3Cl1\ANMOL\22-Jul-2024\0\\#N
  Geom=AllCheck Guess=TCheck SCRF=Check GenChk RM062X/6-31+G(d,p) Freq\
 \Title Card Required\\0,1\C,-1.138154,0.000027,-0.000006\Cl,0.661817,-
 0.000004,0.000002\H,-1.47404,-0.390246,0.958463\H,-1.474008,-0.635108,
 -0.81711\H,-1.473917,1.025267,-0.141345\\Version=ES64L-G16RevA.03\Stat
 e=1-A\HF=-500.0523494\RMSD=2.335e-10\RMSF=1.497e-04\ZeroPoint=0.038197
 5\Thermal=0.0412106\Dipole=-1.0950631,-0.0001398,0.0002081\DipoleDeriv
 =0.898074,-0.002103,-0.0005626,-0.0003775,0.0908988,0.0004575,-0.00110
 86,-0.0005182,0.0916476,-0.750033,0.0027018,0.0003458,-0.0001887,-0.26
 63,0.0006739,-0.0004933,-0.0003716,-0.2670712,-0.0495358,-0.0096119,0.
 0239718,-0.0182546,0.1096917,0.0493841,0.045818,0.0501172,0.0062446,-0
 .0492018,-0.0153726,-0.0205507,-0.0291704,0.0756822,-0.0694994,-0.0377
 469,-0.0678951,0.0419702,-0.0493034,0.0243857,-0.0032042,0.0479911,-0.
 0099728,0.0189839,-0.0064692,0.0186678,0.1272088\Polar=36.7987999,-0.0
 154062,24.1170783,0.0058771,0.0021151,24.1000511\Quadrupole=0.9651358,
 -0.4824517,-0.4826842,0.0004128,-0.0004751,-0.0001623\PG=C01 [X(C1H3Cl
 1)]\NImag=0\\0.33990609,-0.00006503,0.59306727,-0.00002108,-0.00026282
 ,0.59234896,-0.14429467,-0.00006048,-0.00007737,0.21917181,-0.00002264
 ,-0.03385298,-0.00000590,0.00044652,0.02204776,0.00001196,-0.00004492,
 -0.03371077,0.00021224,0.00010231,0.02209589,-0.06533552,-0.03086064,0
 .07574868,-0.02505876,-0.00872169,0.02119379,0.07987036,-0.03153499,-0
 .09004328,0.09422447,0.00161811,0.00168777,-0.00205663,0.03261605,0.08
 667089,0.07739375,0.09423275,-0.28276290,-0.00410554,-0.00206846,0.005
 88363,-0.07982169,-0.10120086,0.29375494,-0.06502528,-0.05002939,-0.06
 441230,-0.02491126,-0.01417816,-0.01821034,0.00525996,0.00666162,0.006
 50997,0.07940850,-0.05122456,-0.15300955,-0.13050810,0.00269834,0.0031
 6129,0.00291794,0.00465783,0.00867096,0.00973768,0.05286845,0.15425587
 ,-0.06590428,-0.13050942,-0.21933788,0.00343431,0.00289905,0.00471710,
 -0.00807163,-0.01676073,-0.01626793,0.06800499,0.14014955,0.22541394,-
 0.06525062,0.08101554,-0.01123793,-0.02490711,0.02247597,-0.00320765,0
 .00526396,-0.00936080,0.00002351,0.00526808,-0.00900005,0.00253662,0.0
 7962569,0.08284722,-0.31616146,0.03655234,-0.00470248,0.00695616,-0.00
 091869,0.00230845,-0.00698634,-0.00070111,0.00467748,-0.01307857,0.004
 22155,-0.08513066,0.32927021,-0.01148033,0.03658441,-0.05653741,0.0005
 3636,-0.00092700,0.00101415,-0.00904915,0.02579374,-0.00060775,0.00810
 768,-0.02229706,0.00547477,0.01188545,-0.03915410,0.05065623\\-0.00026
 061,0.00004235,-0.00001879,-0.00010336,-0.00001019,-0.00000429,0.00009
 612,-0.00010848,0.00022936,0.00011545,-0.00019655,-0.00017712,0.000152
 40,0.00027288,-0.00002916\\\@


 The theorems and results in mathematical physics are
 not theorems and results about Nature, but about our
 description of it.
                   --Gerard 't Hooft
 Job cpu time:       0 days  0 hours  0 minutes 55.9 seconds.
 Elapsed time:       0 days  0 hours  0 minutes  5.6 seconds.
 File lengths (MBytes):  RWF=     13 Int=      0 D2E=      0 Chk=      3 Scr=      1
 Normal termination of Gaussian 16 at Mon Jul 22 16:24:17 2024.
