 Entering Gaussian System, Link 0=g16
 Input=pdt.gjf
 Output=pdt.log
 Initial command:
 /home/anmol/Softwares//g16/l1.exe "/home/anmol/scrh/Gau-399848.inp" -scrdir="/home/anmol/scrh/"
 Entering Link 1 = /home/anmol/Softwares//g16/l1.exe PID=    399850.
  
 Copyright (c) 1988,1990,1992,1993,1995,1998,2003,2009,2016,
            Gaussian, Inc.  All Rights Reserved.
  
 This is part of the Gaussian(R) 16 program.  It is based on
 the Gaussian(R) 09 system (copyright 2009, Gaussian, Inc.),
 the Gaussian(R) 03 system (copyright 2003, Gaussian, Inc.),
 the Gaussian(R) 98 system (copyright 1998, Gaussian, Inc.),
 the Gaussian(R) 94 system (copyright 1995, Gaussian, Inc.),
 the Gaussian 92(TM) system (copyright 1992, Gaussian, Inc.),
 the Gaussian 90(TM) system (copyright 1990, Gaussian, Inc.),
 the Gaussian 88(TM) system (copyright 1988, Gaussian, Inc.),
 the Gaussian 86(TM) system (copyright 1986, Carnegie Mellon
 University), and the Gaussian 82(TM) system (copyright 1983,
 Carnegie Mellon University). Gaussian is a federally registered
 trademark of Gaussian, Inc.
  
 This software contains proprietary and confidential information,
 including trade secrets, belonging to Gaussian, Inc.
  
 This software is provided under written license and may be
 used, copied, transmitted, or stored only in accord with that
 written license.
  
 The following legend is applicable only to US Government
 contracts under FAR:
  
                    RESTRICTED RIGHTS LEGEND
  
 Use, reproduction and disclosure by the US Government is
 subject to restrictions as set forth in subparagraphs (a)
 and (c) of the Commercial Computer Software - Restricted
 Rights clause in FAR 52.227-19.
  
 Gaussian, Inc.
 340 Quinnipiac St., Bldg. 40, Wallingford CT 06492
  
  
 ---------------------------------------------------------------
 Warning -- This program may not be used in any manner that
 competes with the business of Gaussian, Inc. or will provide
 assistance to any competitor of Gaussian, Inc.  The licensee
 of this program is prohibited from giving any competitor of
 Gaussian, Inc. access to this program.  By using this program,
 the user acknowledges that Gaussian, Inc. is engaged in the
 business of creating and licensing software in the field of
 computational chemistry and represents and warrants to the
 licensee that it is not a competitor of Gaussian, Inc. and that
 it will not use this program in any manner prohibited above.
 ---------------------------------------------------------------
  

 Cite this work as:
 Gaussian 16, Revision A.03,
 M. J. Frisch, G. W. Trucks, H. B. Schlegel, G. E. Scuseria, 
 M. A. Robb, J. R. Cheeseman, G. Scalmani, V. Barone, 
 G. A. Petersson, H. Nakatsuji, X. Li, M. Caricato, A. V. Marenich, 
 J. Bloino, B. G. Janesko, R. Gomperts, B. Mennucci, H. P. Hratchian, 
 J. V. Ortiz, A. F. Izmaylov, J. L. Sonnenberg, D. Williams-Young, 
 F. Ding, F. Lipparini, F. Egidi, J. Goings, B. Peng, A. Petrone, 
 T. Henderson, D. Ranasinghe, V. G. Zakrzewski, J. Gao, N. Rega, 
 G. Zheng, W. Liang, M. Hada, M. Ehara, K. Toyota, R. Fukuda, 
 J. Hasegawa, M. Ishida, T. Nakajima, Y. Honda, O. Kitao, H. Nakai, 
 T. Vreven, K. Throssell, J. A. Montgomery, Jr., J. E. Peralta, 
 F. Ogliaro, M. J. Bearpark, J. J. Heyd, E. N. Brothers, K. N. Kudin, 
 V. N. Staroverov, T. A. Keith, R. Kobayashi, J. Normand, 
 K. Raghavachari, A. P. Rendell, J. C. Burant, S. S. Iyengar, 
 J. Tomasi, M. Cossi, J. M. Millam, M. Klene, C. Adamo, R. Cammi, 
 J. W. Ochterski, R. L. Martin, K. Morokuma, O. Farkas, 
 J. B. Foresman, and D. J. Fox, Gaussian, Inc., Wallingford CT, 2016.
 
 ******************************************
 Gaussian 16:  ES64L-G16RevA.03 25-Dec-2016
                22-Jul-2024 
 ******************************************
 %nprocshared=10
 Will use up to   10 processors via shared memory.
 %mem=10GB
 -------------------------------------------------------------
 # opt freq=noraman 6-31+g(d,p) scrf=(smd,solvent=water) m062x
 -------------------------------------------------------------
 1/18=20,19=15,26=3,38=1/1,3;
 2/9=110,12=2,17=6,18=5,40=1/2;
 3/5=1,6=6,7=111,11=2,25=1,30=1,70=32201,71=1,72=1,74=-55/1,2,3;
 4//1;
 5/5=2,38=5,53=1/2;
 6/7=2,8=2,9=2,10=2,28=1/1;
 7//1,2,3,16;
 1/18=20,19=15,26=3/3(2);
 2/9=110/2;
 99//99;
 2/9=110/2;
 3/5=1,6=6,7=111,11=2,25=1,30=1,70=32205,71=1,72=1,74=-55/1,2,3;
 4/5=5,16=3,69=1/1;
 5/5=2,38=5,53=1/2;
 7//1,2,3,16;
 1/18=20,19=15,26=3/3(-5);
 2/9=110/2;
 6/7=2,8=2,9=2,10=2,19=2,28=1/1;
 99/9=1/99;
 -------------------
 Title Card Required
 -------------------
 Symbolic Z-matrix:
 Charge =  0 Multiplicity = 1
 C                    -1.94225   0.6009    0. 
 H                    -3.00621   0.40688   0.00013 
 H                    -1.66164   1.15363   0.88649 
 H                    -1.66184   1.15354  -0.88661 
 Cl                    1.73553   0.08723  0. 
 N                    -1.2083   -0.68823  -0.00001 
 H                    -1.44242  -1.23907   0.82056 
 H                    -1.44262  -1.23918  -0.82043 
 H                    -0.17767  -0.50653  -0.0001 
 
 Add virtual bond connecting atoms H9         and Cl5        Dist= 3.79D+00.

 GradGradGradGradGradGradGradGradGradGradGradGradGradGradGradGradGradGrad
 Berny optimization.
 Initialization pass.
                           ----------------------------
                           !    Initial Parameters    !
                           ! (Angstroms and Degrees)  !
 --------------------------                            --------------------------
 ! Name  Definition              Value          Derivative Info.                !
 --------------------------------------------------------------------------------
 ! R1    R(1,2)                  1.0815         estimate D2E/DX2                !
 ! R2    R(1,3)                  1.0817         estimate D2E/DX2                !
 ! R3    R(1,4)                  1.0817         estimate D2E/DX2                !
 ! R4    R(1,6)                  1.4834         estimate D2E/DX2                !
 ! R5    R(5,9)                  2.0032         estimate D2E/DX2                !
 ! R6    R(6,7)                  1.0157         estimate D2E/DX2                !
 ! R7    R(6,8)                  1.0157         estimate D2E/DX2                !
 ! R8    R(6,9)                  1.0465         estimate D2E/DX2                !
 ! A1    A(2,1,3)              110.29           estimate D2E/DX2                !
 ! A2    A(2,1,4)              110.2894         estimate D2E/DX2                !
 ! A3    A(2,1,6)              109.3199         estimate D2E/DX2                !
 ! A4    A(3,1,4)              110.085          estimate D2E/DX2                !
 ! A5    A(3,1,6)              108.4033         estimate D2E/DX2                !
 ! A6    A(4,1,6)              108.404          estimate D2E/DX2                !
 ! A7    A(1,6,7)              110.9322         estimate D2E/DX2                !
 ! A8    A(1,6,8)              110.9326         estimate D2E/DX2                !
 ! A9    A(1,6,9)              109.6562         estimate D2E/DX2                !
 ! A10   A(7,6,8)              107.7724         estimate D2E/DX2                !
 ! A11   A(7,6,9)              108.7378         estimate D2E/DX2                !
 ! A12   A(8,6,9)              108.7425         estimate D2E/DX2                !
 ! A13   L(5,9,6,3,-1)         173.3968         estimate D2E/DX2                !
 ! A14   L(5,9,6,3,-2)         176.684          estimate D2E/DX2                !
 ! D1    D(2,1,6,7)            -59.8763         estimate D2E/DX2                !
 ! D2    D(2,1,6,8)             59.8734         estimate D2E/DX2                !
 ! D3    D(2,1,6,9)           -179.9984         estimate D2E/DX2                !
 ! D4    D(3,1,6,7)             60.3832         estimate D2E/DX2                !
 ! D5    D(3,1,6,8)           -179.8671         estimate D2E/DX2                !
 ! D6    D(3,1,6,9)            -59.7389         estimate D2E/DX2                !
 ! D7    D(4,1,6,7)            179.8645         estimate D2E/DX2                !
 ! D8    D(4,1,6,8)            -60.3858         estimate D2E/DX2                !
 ! D9    D(4,1,6,9)             59.7424         estimate D2E/DX2                !
 --------------------------------------------------------------------------------
 Trust Radius=3.00D-01 FncErr=1.00D-07 GrdErr=1.00D-06 EigMax=2.50D+02 EigMin=1.00D-04
 Number of steps in this run=     41 maximum allowed number of steps=    100.
 GradGradGradGradGradGradGradGradGradGradGradGradGradGradGradGradGradGrad

                          Input orientation:                          
 ---------------------------------------------------------------------
 Center     Atomic      Atomic             Coordinates (Angstroms)
 Number     Number       Type             X           Y           Z
 ---------------------------------------------------------------------
      1          6           0       -1.942250    0.600899    0.000001
      2          1           0       -3.006212    0.406881    0.000125
      3          1           0       -1.661643    1.153627    0.886494
      4          1           0       -1.661844    1.153536   -0.886614
      5         17           0        1.735531    0.087230   -0.000001
      6          7           0       -1.208303   -0.688226   -0.000005
      7          1           0       -1.442418   -1.239066    0.820564
      8          1           0       -1.442623   -1.239181   -0.820432
      9          1           0       -0.177671   -0.506529   -0.000097
 ---------------------------------------------------------------------
                    Distance matrix (angstroms):
                    1          2          3          4          5
     1  C    0.000000
     2  H    1.081507   0.000000
     3  H    1.081720   1.775147   0.000000
     4  H    1.081721   1.775141   1.773108   0.000000
     5  Cl   3.713479   4.752505   3.669314   3.669502   0.000000
     6  N    1.483415   2.105169   2.093757   2.093767   3.044255
     7  H    2.075723   2.414066   2.403619   2.947397   3.540021
     8  H    2.075724   2.414051   2.947388   2.403650   3.540217
     9  H    2.083299   2.972366   2.396734   2.396768   2.003220
                    6          7          8          9
     6  N    0.000000
     7  H    1.015661   0.000000
     8  H    1.015656   1.640996   0.000000
     9  H    1.046526   1.676210   1.676255   0.000000
 Stoichiometry    CH6ClN
 Framework group  C1[X(CH6ClN)]
 Deg. of freedom    21
 Full point group                 C1      NOp   1
 Largest Abelian subgroup         C1      NOp   1
 Largest concise Abelian subgroup C1      NOp   1
                         Standard orientation:                         
 ---------------------------------------------------------------------
 Center     Atomic      Atomic             Coordinates (Angstroms)
 Number     Number       Type             X           Y           Z
 ---------------------------------------------------------------------
      1          6           0       -1.942250   -0.600899   -0.000001
      2          1           0       -3.006212   -0.406881   -0.000125
      3          1           0       -1.661643   -1.153627   -0.886494
      4          1           0       -1.661844   -1.153536    0.886614
      5         17           0        1.735531   -0.087230    0.000001
      6          7           0       -1.208303    0.688226    0.000005
      7          1           0       -1.442418    1.239066   -0.820564
      8          1           0       -1.442623    1.239181    0.820432
      9          1           0       -0.177671    0.506529    0.000097
 ---------------------------------------------------------------------
 Rotational constants (GHZ):          24.8209567           2.6447073           2.4584369
 Standard basis: 6-31+G(d,p) (6D, 7F)
 There are    91 symmetry adapted cartesian basis functions of A   symmetry.
 There are    91 symmetry adapted basis functions of A   symmetry.
    91 basis functions,   162 primitive gaussians,    91 cartesian basis functions
    18 alpha electrons       18 beta electrons
       nuclear repulsion energy        99.7997516699 Hartrees.
 NAtoms=    9 NActive=    9 NUniq=    9 SFac= 1.00D+00 NAtFMM=   60 NAOKFM=F Big=F
 Integral buffers will be    131072 words long.
 Raffenetti 2 integral format.
 Two-electron integral symmetry is turned on.
 ------------------------------------------------------------------------------
 Polarizable Continuum Model (PCM)
 =================================
 Model                : PCM.
 Atomic radii         : SMD-Coulomb.
 Polarization charges : Total charges.
 Charge compensation  : None.
 Solution method      : On-the-fly selection.
 Cavity type          : VdW (van der Waals Surface) (Alpha=1.000).
 Cavity algorithm     : GePol (No added spheres)
                        Default sphere list used, NSphG=    9.
                        Lebedev-Laikov grids with approx.  5.0 points / Ang**2.
                        Smoothing algorithm: York/Karplus (Gamma=1.0000).
                        Polarization charges: spherical gaussians, with
                                              point-specific exponents (IZeta= 3).
                        Self-potential: point-specific (ISelfS= 7).
                        Self-field    : sphere-specific E.n sum rule (ISelfD= 2).
 1st derivatives      : Analytical E(r).r(x)/FMM algorithm (CHGder, D1EAlg=3).
                        Cavity 1st derivative terms included.
 Solvent              : Water, Eps=  78.355300 Eps(inf)=   1.777849
 ------------------------------------------------------------------------------
 Spheres list:
 ISph  on   Nord     Re0    Alpha      Xe            Ye            Ze
    1   C      1    1.8500  1.000     -1.942250     -0.600899     -0.000001
    2   H      2    1.2000  1.000     -3.006212     -0.406881     -0.000125
    3   H      3    1.2000  1.000     -1.661643     -1.153627     -0.886494
    4   H      4    1.2000  1.000     -1.661844     -1.153536      0.886614
    5  Cl      5    2.3800  1.000      1.735531     -0.087230      0.000001
    6   N      6    1.8900  1.000     -1.208303      0.688226      0.000005
    7   H      7    1.2000  1.000     -1.442418      1.239066     -0.820564
    8   H      8    1.2000  1.000     -1.442623      1.239181      0.820432
    9   H      9    1.2000  1.000     -0.177671      0.506529      0.000097
 ------------------------------------------------------------------------------
 ------------------------------------------------------------------------------
 Atomic radii for non-electrostatic terms: SMD-CDS.
 ------------------------------------------------------------------------------
 Nuclear repulsion after PCM non-electrostatic terms =       99.8044604152 Hartrees.
 One-electron integrals computed using PRISM.
 NBasis=    91 RedAO= T EigKep=  1.76D-03  NBF=    91
 NBsUse=    91 1.00D-06 EigRej= -1.00D+00 NBFU=    91
 ExpMin= 4.38D-02 ExpMax= 2.52D+04 ExpMxC= 3.78D+03 IAcc=3 IRadAn=         5 AccDes= 0.00D+00
 Harris functional with IExCor= 1009 and IRadAn=       5 diagonalized for initial guess.
 HarFok:  IExCor= 1009 AccDes= 0.00D+00 IRadAn=         5 IDoV= 1 UseB2=F ITyADJ=14
 ICtDFT=  3500011 ScaDFX=  1.000000  1.000000  1.000000  1.000000
 FoFCou: FMM=F IPFlag=           0 FMFlag=      100000 FMFlg1=           0
         NFxFlg=           0 DoJE=T BraDBF=F KetDBF=T FulRan=T
         wScrn=  0.000000 ICntrl=       500 IOpCl=  0 I1Cent=   200000004 NGrid=           0
         NMat0=    1 NMatS0=      1 NMatT0=    0 NMatD0=    1 NMtDS0=    0 NMtDT0=    0
 Petite list used in FoFCou.
 Keep R1 ints in memory in canonical form, NReq=17901697.
 Requested convergence on RMS density matrix=1.00D-08 within 128 cycles.
 Requested convergence on MAX density matrix=1.00D-06.
 Requested convergence on             energy=1.00D-06.
 No special actions if energy rises.
 Inv3:  Mode=1 IEnd=     2555787.
 Iteration    1 A*A^-1 deviation from unit magnitude is 3.55D-15 for    545.
 Iteration    1 A*A^-1 deviation from orthogonality  is 1.44D-15 for    305    102.
 Iteration    1 A^-1*A deviation from unit magnitude is 3.33D-15 for    545.
 Iteration    1 A^-1*A deviation from orthogonality  is 1.77D-15 for    401     27.
 Error on total polarization charges =  0.02309
 SCF Done:  E(RM062X) =  -556.634303697     A.U. after   11 cycles
            NFock= 11  Conv=0.43D-08     -V/T= 2.0039
 SMD-CDS (non-electrostatic) energy       (kcal/mol) =       2.95
 (included in total energy above)

 **********************************************************************

            Population analysis using the SCF density.

 **********************************************************************

 Orbital symmetries:
       Occupied  (A) (A) (A) (A) (A) (A) (A) (A) (A) (A) (A) (A)
                 (A) (A) (A) (A) (A) (A)
       Virtual   (A) (A) (A) (A) (A) (A) (A) (A) (A) (A) (A) (A)
                 (A) (A) (A) (A) (A) (A) (A) (A) (A) (A) (A) (A)
                 (A) (A) (A) (A) (A) (A) (A) (A) (A) (A) (A) (A)
                 (A) (A) (A) (A) (A) (A) (A) (A) (A) (A) (A) (A)
                 (A) (A) (A) (A) (A) (A) (A) (A) (A) (A) (A) (A)
                 (A) (A) (A) (A) (A) (A) (A) (A) (A) (A) (A) (A)
                 (A)
 The electronic state is 1-A.
 Alpha  occ. eigenvalues -- -102.56217 -14.84537 -10.58453  -9.70833  -7.42865
 Alpha  occ. eigenvalues --   -7.42804  -7.42803  -1.08425  -0.80347  -0.79476
 Alpha  occ. eigenvalues --   -0.63439  -0.62942  -0.54171  -0.46714  -0.46670
 Alpha  occ. eigenvalues --   -0.31256  -0.30677  -0.30668
 Alpha virt. eigenvalues --    0.02387   0.04934   0.06013   0.06313   0.09512
 Alpha virt. eigenvalues --    0.10151   0.10686   0.12583   0.14059   0.14670
 Alpha virt. eigenvalues --    0.17868   0.19846   0.23470   0.23539   0.24706
 Alpha virt. eigenvalues --    0.25535   0.27560   0.32490   0.43178   0.65297
 Alpha virt. eigenvalues --    0.66909   0.67349   0.69066   0.70119   0.72159
 Alpha virt. eigenvalues --    0.78116   0.82089   0.85280   0.90814   0.95934
 Alpha virt. eigenvalues --    0.97158   1.01501   1.01863   1.02964   1.02970
 Alpha virt. eigenvalues --    1.05173   1.05458   1.09659   1.13713   1.24126
 Alpha virt. eigenvalues --    1.31649   1.32153   1.38055   1.69617   1.72377
 Alpha virt. eigenvalues --    1.72813   1.99485   2.06914   2.07662   2.12788
 Alpha virt. eigenvalues --    2.12838   2.25961   2.29432   2.32011   2.32853
 Alpha virt. eigenvalues --    2.45564   2.53329   2.54999   2.70871   2.77283
 Alpha virt. eigenvalues --    2.84762   2.86333   2.96599   2.98043   3.25653
 Alpha virt. eigenvalues --    3.31114   3.35396   3.36239   3.52921   3.53663
 Alpha virt. eigenvalues --    4.22480   4.46528   4.51511
          Condensed to atoms (all electrons):
               1          2          3          4          5          6
     1  C    5.086176   0.408826   0.407923   0.407924   0.027554   0.097817
     2  H    0.408826   0.460809  -0.020857  -0.020858   0.000202  -0.041191
     3  H    0.407923  -0.020857   0.461917  -0.022791  -0.000946  -0.038612
     4  H    0.407924  -0.020858  -0.022791   0.461915  -0.000946  -0.038612
     5  Cl   0.027554   0.000202  -0.000946  -0.000946  17.845366  -0.155906
     6  N    0.097817  -0.041191  -0.038612  -0.038612  -0.155906   6.990882
     7  H   -0.017727  -0.002600  -0.003564   0.003194   0.002154   0.313094
     8  H   -0.017723  -0.002600   0.003194  -0.003563   0.002157   0.313087
     9  H   -0.009196   0.003398  -0.003155  -0.003155   0.149627   0.171040
               7          8          9
     1  C   -0.017727  -0.017723  -0.009196
     2  H   -0.002600  -0.002600   0.003398
     3  H   -0.003564   0.003194  -0.003155
     4  H    0.003194  -0.003563  -0.003155
     5  Cl   0.002154   0.002157   0.149627
     6  N    0.313094   0.313087   0.171040
     7  H    0.292363  -0.015365  -0.009828
     8  H   -0.015365   0.292364  -0.009824
     9  H   -0.009828  -0.009824   0.363867
 Mulliken charges:
               1
     1  C   -0.391574
     2  H    0.214873
     3  H    0.216891
     4  H    0.216892
     5  Cl  -0.869262
     6  N   -0.611600
     7  H    0.438279
     8  H    0.438275
     9  H    0.347227
 Sum of Mulliken charges =  -0.00000
 Mulliken charges with hydrogens summed into heavy atoms:
               1
     1  C    0.257082
     5  Cl  -0.869262
     6  N    0.612180
 Electronic spatial extent (au):  <R**2>=            482.3633
 Charge=             -0.0000 electrons
 Dipole moment (field-independent basis, Debye):
    X=            -13.2111    Y=              2.9578    Z=             -0.0001  Tot=             13.5381
 Quadrupole moment (field-independent basis, Debye-Ang):
   XX=            -32.5783   YY=            -24.8076   ZZ=            -27.0481
   XY=             -2.3848   XZ=             -0.0001   YZ=             -0.0000
 Traceless Quadrupole moment (field-independent basis, Debye-Ang):
   XX=             -4.4337   YY=              3.3371   ZZ=              1.0966
   XY=             -2.3848   XZ=             -0.0001   YZ=             -0.0000
 Octapole moment (field-independent basis, Debye-Ang**2):
  XXX=            -61.9826  YYY=              9.0057  ZZZ=             -0.0003  XYY=            -14.4524
  XXY=              6.0174  XXZ=              0.0002  XZZ=            -10.9925  YZZ=              3.5199
  YYZ=              0.0001  XYZ=             -0.0001
 Hexadecapole moment (field-independent basis, Debye-Ang**3):
 XXXX=           -546.1778 YYYY=            -76.6278 ZZZZ=            -44.6391 XXXY=             -6.7308
 XXXZ=             -0.0005 YYYX=             -9.9595 YYYZ=              0.0007 ZZZX=             -0.0002
 ZZZY=             -0.0009 XXYY=            -96.6548 XXZZ=            -96.5714 YYZZ=            -16.3334
 XXYZ=              0.0007 YYXZ=             -0.0009 ZZXY=             -4.3843
 N-N= 9.980446041519D+01 E-N=-1.517693057271D+03  KE= 5.544884114261D+02
 D1PCM: PCM CHGder 1st derivatives, ID1Alg=3 FixD1E=F DoIter=F DoCFld=F I1PDM=0.
 Calling FoFJK, ICntrl=      2127 FMM=F ISym2X=0 I1Cent= 0 IOpClX= 0 NMat=1 NMatS=1 NMatT=0.
 ***** Axes restored to original set *****
 -------------------------------------------------------------------
 Center     Atomic                   Forces (Hartrees/Bohr)
 Number     Number              X              Y              Z
 -------------------------------------------------------------------
      1        6           0.001718566   -0.002682297   -0.000000692
      2        1          -0.004468303   -0.000979417    0.000001144
      3        1           0.001346089    0.002348395    0.003937420
      4        1           0.001346228    0.002346770   -0.003937234
      5       17           0.001252623    0.000653836   -0.000000495
      6        7          -0.003414881    0.004122829    0.000005380
      7        1          -0.001211311   -0.003177654    0.004716292
      8        1          -0.001209497   -0.003179846   -0.004719526
      9        1           0.004640485    0.000547383   -0.000002289
 -------------------------------------------------------------------
 Cartesian Forces:  Max     0.004719526 RMS     0.002700279

 GradGradGradGradGradGradGradGradGradGradGradGradGradGradGradGradGradGrad
 Berny optimization.
 FormGI is forming the generalized inverse of G from B-inverse, IUseBI=4.
 Internal  Forces:  Max     0.006002964 RMS     0.002376548
 Search for a local minimum.
 Step number   1 out of a maximum of   41
 All quantities printed in internal units (Hartrees-Bohrs-Radians)
 Mixed Optimization -- RFO/linear search
 Second derivative matrix not updated -- first step.
 ITU=  0
     Eigenvalues ---    0.00413   0.00413   0.00588   0.05679   0.05714
     Eigenvalues ---    0.05808   0.06033   0.06140   0.16000   0.16000
     Eigenvalues ---    0.16000   0.16000   0.16000   0.16000   0.34181
     Eigenvalues ---    0.35787   0.35787   0.35813   0.40362   0.45038
     Eigenvalues ---    0.45038
 RFO step:  Lambda=-6.30040431D-04 EMin= 4.12935792D-03
 Linear search not attempted -- first point.
 Iteration  1 RMS(Cart)=  0.08640464 RMS(Int)=  0.00582598
 Iteration  2 RMS(Cart)=  0.00851276 RMS(Int)=  0.00002842
 Iteration  3 RMS(Cart)=  0.00003748 RMS(Int)=  0.00000197
 Iteration  4 RMS(Cart)=  0.00000000 RMS(Int)=  0.00000197
 Variable       Old X    -DE/DX   Delta X   Delta X   Delta X     New X
                                 (Linear)    (Quad)   (Total)
    R1        2.04375   0.00457   0.00000   0.01273   0.01273   2.05648
    R2        2.04415   0.00478   0.00000   0.01334   0.01334   2.05749
    R3        2.04416   0.00478   0.00000   0.01333   0.01333   2.05749
    R4        2.80325   0.00094   0.00000   0.00273   0.00273   2.80598
    R5        3.78554   0.00138   0.00000   0.02412   0.02412   3.80965
    R6        1.91932   0.00581   0.00000   0.01289   0.01289   1.93221
    R7        1.91931   0.00582   0.00000   0.01290   0.01290   1.93221
    R8        1.97765   0.00600   0.00000   0.01485   0.01485   1.99250
    A1        1.92492   0.00016   0.00000   0.00110   0.00110   1.92602
    A2        1.92491   0.00016   0.00000   0.00110   0.00110   1.92601
    A3        1.90799  -0.00015   0.00000  -0.00084  -0.00084   1.90716
    A4        1.92135   0.00012   0.00000   0.00057   0.00057   1.92192
    A5        1.89199  -0.00015   0.00000  -0.00100  -0.00100   1.89099
    A6        1.89201  -0.00016   0.00000  -0.00102  -0.00102   1.89099
    A7        1.93613   0.00025   0.00000   0.00207   0.00207   1.93820
    A8        1.93614   0.00026   0.00000   0.00208   0.00207   1.93821
    A9        1.91386  -0.00090   0.00000  -0.00660  -0.00660   1.90726
   A10        1.88098  -0.00006   0.00000   0.00148   0.00148   1.88246
   A11        1.89783   0.00024   0.00000   0.00055   0.00055   1.89839
   A12        1.89791   0.00023   0.00000   0.00052   0.00052   1.89844
   A13        3.02635  -0.00081   0.00000  -0.16956  -0.16956   2.85678
   A14        3.08372  -0.00033   0.00000  -0.06893  -0.06893   3.01479
    D1       -1.04504  -0.00013   0.00000  -0.00224  -0.00225  -1.04728
    D2        1.04499   0.00013   0.00000   0.00236   0.00236   1.04735
    D3       -3.14156  -0.00000   0.00000   0.00004   0.00004  -3.14153
    D4        1.05389  -0.00012   0.00000  -0.00201  -0.00201   1.05188
    D5       -3.13927   0.00015   0.00000   0.00260   0.00260  -3.13668
    D6       -1.04264   0.00001   0.00000   0.00028   0.00028  -1.04236
    D7        3.13923  -0.00015   0.00000  -0.00248  -0.00248   3.13675
    D8       -1.05393   0.00012   0.00000   0.00213   0.00213  -1.05180
    D9        1.04270  -0.00001   0.00000  -0.00019  -0.00019   1.04251
         Item               Value     Threshold  Converged?
 Maximum Force            0.006003     0.000450     NO 
 RMS     Force            0.002377     0.000300     NO 
 Maximum Displacement     0.323938     0.001800     NO 
 RMS     Displacement     0.091947     0.001200     NO 
 Predicted change in Energy=-3.261315D-04
 GradGradGradGradGradGradGradGradGradGradGradGradGradGradGradGradGradGrad

                          Input orientation:                          
 ---------------------------------------------------------------------
 Center     Atomic      Atomic             Coordinates (Angstroms)
 Number     Number       Type             X           Y           Z
 ---------------------------------------------------------------------
      1          6           0       -1.897253    0.598592   -0.000067
      2          1           0       -2.976522    0.459156    0.002628
      3          1           0       -1.583004    1.138911    0.891415
      4          1           0       -1.587357    1.138020   -0.893608
      5         17           0        1.640991    0.258650    0.004549
      6          7           0       -1.231616   -0.728714   -0.001030
      7          1           0       -1.491395   -1.270458    0.826315
      8          1           0       -1.495364   -1.271262   -0.826590
      9          1           0       -0.185912   -0.593725   -0.003576
 ---------------------------------------------------------------------
                    Distance matrix (angstroms):
                    1          2          3          4          5
     1  C    0.000000
     2  H    1.088243   0.000000
     3  H    1.088777   1.787148   0.000000
     4  H    1.088775   1.787141   1.785028   0.000000
     5  Cl   3.554539   4.621864   3.457677   3.464420   0.000000
     6  N    1.484862   2.110864   2.099513   2.099510   3.037563
     7  H    2.083501   2.423969   2.411989   2.961099   3.581244
     8  H    2.083509   2.424000   2.961107   2.411968   3.587219
     9  H    2.085742   2.982633   2.398938   2.398988   2.015982
                    6          7          8          9
     6  N    0.000000
     7  H    1.022483   0.000000
     8  H    1.022482   1.652909   0.000000
     9  H    1.054384   1.688482   1.688512   0.000000
 Stoichiometry    CH6ClN
 Framework group  C1[X(CH6ClN)]
 Deg. of freedom    21
 Full point group                 C1      NOp   1
 Largest Abelian subgroup         C1      NOp   1
 Largest concise Abelian subgroup C1      NOp   1
                         Standard orientation:                         
 ---------------------------------------------------------------------
 Center     Atomic      Atomic             Coordinates (Angstroms)
 Number     Number       Type             X           Y           Z
 ---------------------------------------------------------------------
      1          6           0       -1.817122   -0.655047   -0.000008
      2          1           0       -2.903387   -0.589617   -0.004464
      3          1           0       -1.465351   -1.173850   -0.890254
      4          1           0       -1.472503   -1.170859    0.894758
      5         17           0        1.689664   -0.074363   -0.000006
      6          7           0       -1.243648    0.714604   -0.000002
      7          1           0       -1.538528    1.236238   -0.828504
      8          1           0       -1.545087    1.238989    0.824390
      9          1           0       -0.191173    0.651319    0.004248
 ---------------------------------------------------------------------
 Rotational constants (GHZ):          22.8681955           2.8063986           2.5756275
 Standard basis: 6-31+G(d,p) (6D, 7F)
 There are    91 symmetry adapted cartesian basis functions of A   symmetry.
 There are    91 symmetry adapted basis functions of A   symmetry.
    91 basis functions,   162 primitive gaussians,    91 cartesian basis functions
    18 alpha electrons       18 beta electrons
       nuclear repulsion energy       100.5605588410 Hartrees.
 NAtoms=    9 NActive=    9 NUniq=    9 SFac= 1.00D+00 NAtFMM=   60 NAOKFM=F Big=F
 Integral buffers will be    131072 words long.
 Raffenetti 2 integral format.
 Two-electron integral symmetry is turned on.
 ------------------------------------------------------------------------------
 Polarizable Continuum Model (PCM)
 =================================
 Model                : PCM.
 Atomic radii         : SMD-Coulomb.
 Polarization charges : Total charges.
 Charge compensation  : None.
 Solution method      : On-the-fly selection.
 Cavity type          : VdW (van der Waals Surface) (Alpha=1.000).
 Cavity algorithm     : GePol (No added spheres)
                        Default sphere list used, NSphG=    9.
                        Lebedev-Laikov grids with approx.  5.0 points / Ang**2.
                        Smoothing algorithm: York/Karplus (Gamma=1.0000).
                        Polarization charges: spherical gaussians, with
                                              point-specific exponents (IZeta= 3).
                        Self-potential: point-specific (ISelfS= 7).
                        Self-field    : sphere-specific E.n sum rule (ISelfD= 2).
 1st derivatives      : Analytical E(r).r(x)/FMM algorithm (CHGder, D1EAlg=3).
                        Cavity 1st derivative terms included.
 Solvent              : Water, Eps=  78.355300 Eps(inf)=   1.777849
 ------------------------------------------------------------------------------
 Spheres list:
 ISph  on   Nord     Re0    Alpha      Xe            Ye            Ze
    1   C      1    1.8500  1.000     -1.817122     -0.655047     -0.000008
    2   H      2    1.2000  1.000     -2.903387     -0.589617     -0.004464
    3   H      3    1.2000  1.000     -1.465351     -1.173850     -0.890254
    4   H      4    1.2000  1.000     -1.472503     -1.170859      0.894758
    5  Cl      5    2.3800  1.000      1.689664     -0.074363     -0.000006
    6   N      6    1.8900  1.000     -1.243648      0.714604     -0.000002
    7   H      7    1.2000  1.000     -1.538528      1.236238     -0.828504
    8   H      8    1.2000  1.000     -1.545087      1.238989      0.824390
    9   H      9    1.2000  1.000     -0.191173      0.651319      0.004248
 ------------------------------------------------------------------------------
 ------------------------------------------------------------------------------
 Atomic radii for non-electrostatic terms: SMD-CDS.
 ------------------------------------------------------------------------------
 Nuclear repulsion after PCM non-electrostatic terms =      100.5652197915 Hartrees.
 One-electron integrals computed using PRISM.
 NBasis=    91 RedAO= T EigKep=  1.75D-03  NBF=    91
 NBsUse=    91 1.00D-06 EigRej= -1.00D+00 NBFU=    91
 Initial guess from the checkpoint file:  "/home/anmol/scrh/Gau-399850.chk"
 B after Tr=     0.000000   -0.000000    0.000000
         Rot=    0.999929    0.000358    0.000108   -0.011932 Ang=   1.37 deg.
 ExpMin= 4.38D-02 ExpMax= 2.52D+04 ExpMxC= 3.78D+03 IAcc=2 IRadAn=         4 AccDes= 0.00D+00
 Harris functional with IExCor= 1009 and IRadAn=       4 diagonalized for initial guess.
 HarFok:  IExCor= 1009 AccDes= 0.00D+00 IRadAn=         4 IDoV= 1 UseB2=F ITyADJ=14
 ICtDFT=  3500011 ScaDFX=  1.000000  1.000000  1.000000  1.000000
 FoFCou: FMM=F IPFlag=           0 FMFlag=      100000 FMFlg1=           0
         NFxFlg=           0 DoJE=T BraDBF=F KetDBF=T FulRan=T
         wScrn=  0.000000 ICntrl=       500 IOpCl=  0 I1Cent=   200000004 NGrid=           0
         NMat0=    1 NMatS0=      1 NMatT0=    0 NMatD0=    1 NMtDS0=    0 NMtDT0=    0
 Petite list used in FoFCou.
 Keep R1 ints in memory in canonical form, NReq=17901697.
 Requested convergence on RMS density matrix=1.00D-08 within 128 cycles.
 Requested convergence on MAX density matrix=1.00D-06.
 Requested convergence on             energy=1.00D-06.
 No special actions if energy rises.
 Inv3:  Mode=1 IEnd=     2550252.
 Iteration    1 A*A^-1 deviation from unit magnitude is 2.89D-15 for     29.
 Iteration    1 A*A^-1 deviation from orthogonality  is 1.74D-15 for    267    167.
 Iteration    1 A^-1*A deviation from unit magnitude is 3.11D-15 for     29.
 Iteration    1 A^-1*A deviation from orthogonality  is 1.59D-15 for    458    255.
 Error on total polarization charges =  0.02297
 SCF Done:  E(RM062X) =  -556.634354381     A.U. after   10 cycles
            NFock= 10  Conv=0.32D-08     -V/T= 2.0040
 SMD-CDS (non-electrostatic) energy       (kcal/mol) =       2.92
 (included in total energy above)
 D1PCM: PCM CHGder 1st derivatives, ID1Alg=3 FixD1E=F DoIter=F DoCFld=F I1PDM=0.
 Calling FoFJK, ICntrl=      2127 FMM=F ISym2X=0 I1Cent= 0 IOpClX= 0 NMat=1 NMatS=1 NMatT=0.
 ***** Axes restored to original set *****
 -------------------------------------------------------------------
 Center     Atomic                   Forces (Hartrees/Bohr)
 Number     Number              X              Y              Z
 -------------------------------------------------------------------
      1        6           0.000601903    0.000148143    0.000005906
      2        1           0.000129514   -0.000222008   -0.000000358
      3        1          -0.000080596   -0.000088087   -0.000274430
      4        1          -0.000075027   -0.000081574    0.000273538
      5       17           0.001803192   -0.000007507   -0.000029521
      6        7          -0.000238811   -0.001681250   -0.000099217
      7        1          -0.000107312   -0.000106419   -0.000201897
      8        1          -0.000143558   -0.000103013    0.000205109
      9        1          -0.001889304    0.002141715    0.000120870
 -------------------------------------------------------------------
 Cartesian Forces:  Max     0.002141715 RMS     0.000747361

 GradGradGradGradGradGradGradGradGradGradGradGradGradGradGradGradGradGrad
 Berny optimization.
 Using GEDIIS/GDIIS optimizer.
 FormGI is forming the generalized inverse of G from B-inverse, IUseBI=4.
 Internal  Forces:  Max     0.002895873 RMS     0.000657999
 Search for a local minimum.
 Step number   2 out of a maximum of   41
 All quantities printed in internal units (Hartrees-Bohrs-Radians)
 Mixed Optimization -- En-DIIS/RFO-DIIS
 Update second derivatives using D2CorX and points    1    2
 DE= -5.07D-05 DEPred=-3.26D-04 R= 1.55D-01
 Trust test= 1.55D-01 RLast= 1.88D-01 DXMaxT set to 3.00D-01
 ITU=  0  0
 Use linear search instead of GDIIS.
     Eigenvalues ---    0.00413   0.00588   0.01321   0.04873   0.05709
     Eigenvalues ---    0.05845   0.06042   0.06151   0.15515   0.16000
     Eigenvalues ---    0.16000   0.16000   0.16000   0.16013   0.27713
     Eigenvalues ---    0.34223   0.35787   0.35808   0.38735   0.43180
     Eigenvalues ---    0.45038
 RFO step:  Lambda=-5.14533921D-04 EMin= 4.12651496D-03
 Quartic linear search produced a step of -0.45651.
 Iteration  1 RMS(Cart)=  0.09701620 RMS(Int)=  0.00837056
 Iteration  2 RMS(Cart)=  0.01406356 RMS(Int)=  0.00014551
 Iteration  3 RMS(Cart)=  0.00019127 RMS(Int)=  0.00000097
 Iteration  4 RMS(Cart)=  0.00000002 RMS(Int)=  0.00000096
 Variable       Old X    -DE/DX   Delta X   Delta X   Delta X     New X
                                 (Linear)    (Quad)   (Total)
    R1        2.05648  -0.00011  -0.00581   0.01669   0.01088   2.06736
    R2        2.05749  -0.00030  -0.00609   0.01721   0.01112   2.06862
    R3        2.05749  -0.00028  -0.00609   0.01723   0.01115   2.06863
    R4        2.80598  -0.00046  -0.00125   0.00288   0.00164   2.80762
    R5        3.80965   0.00162  -0.01101   0.04742   0.03641   3.84607
    R6        1.93221  -0.00008  -0.00588   0.01699   0.01110   1.94332
    R7        1.93221  -0.00007  -0.00589   0.01700   0.01112   1.94333
    R8        1.99250   0.00019  -0.00678   0.01993   0.01315   2.00565
    A1        1.92602   0.00010  -0.00050   0.00174   0.00124   1.92726
    A2        1.92601   0.00010  -0.00050   0.00176   0.00126   1.92727
    A3        1.90716  -0.00034   0.00038  -0.00233  -0.00195   1.90521
    A4        1.92192  -0.00008  -0.00026   0.00056   0.00030   1.92222
    A5        1.89099   0.00011   0.00046  -0.00091  -0.00046   1.89053
    A6        1.89099   0.00011   0.00047  -0.00095  -0.00048   1.89050
    A7        1.93820   0.00017  -0.00094   0.00327   0.00232   1.94052
    A8        1.93821   0.00014  -0.00095   0.00321   0.00226   1.94047
    A9        1.90726  -0.00070   0.00301  -0.01107  -0.00806   1.89920
   A10        1.88246  -0.00020  -0.00067   0.00112   0.00044   1.88290
   A11        1.89839   0.00029  -0.00025   0.00176   0.00151   1.89990
   A12        1.89844   0.00031  -0.00024   0.00188   0.00165   1.90008
   A13        2.85678   0.00290   0.07741   0.13620   0.21361   3.07039
   A14        3.01479   0.00103   0.03147   0.03782   0.06929   3.08407
    D1       -1.04728   0.00001   0.00103  -0.00301  -0.00199  -1.04927
    D2        1.04735  -0.00002  -0.00108   0.00272   0.00164   1.04899
    D3       -3.14153   0.00000  -0.00002  -0.00009  -0.00011   3.14155
    D4        1.05188   0.00000   0.00092  -0.00282  -0.00191   1.04997
    D5       -3.13668  -0.00004  -0.00119   0.00291   0.00172  -3.13495
    D6       -1.04236  -0.00001  -0.00013   0.00010  -0.00003  -1.04239
    D7        3.13675   0.00003   0.00113  -0.00321  -0.00208   3.13467
    D8       -1.05180  -0.00001  -0.00097   0.00252   0.00155  -1.05025
    D9        1.04251   0.00002   0.00009  -0.00029  -0.00020   1.04231
         Item               Value     Threshold  Converged?
 Maximum Force            0.002896     0.000450     NO 
 RMS     Force            0.000658     0.000300     NO 
 Maximum Displacement     0.352188     0.001800     NO 
 RMS     Displacement     0.107458     0.001200     NO 
 Predicted change in Energy=-3.829139D-04
 GradGradGradGradGradGradGradGradGradGradGradGradGradGradGradGradGradGrad

                          Input orientation:                          
 ---------------------------------------------------------------------
 Center     Atomic      Atomic             Coordinates (Angstroms)
 Number     Number       Type             X           Y           Z
 ---------------------------------------------------------------------
      1          6           0       -1.952345    0.602039    0.000431
      2          1           0       -3.027561    0.400294   -0.006526
      3          1           0       -1.674063    1.159313    0.900594
      4          1           0       -1.663040    1.162541   -0.894247
      5         17           0        1.784892    0.072281   -0.012676
      6          7           0       -1.214264   -0.687387    0.002621
      7          1           0       -1.449334   -1.248719    0.831577
      8          1           0       -1.439380   -1.245792   -0.831069
      9          1           0       -0.172339   -0.485400    0.009329
 ---------------------------------------------------------------------
                    Distance matrix (angstroms):
                    1          2          3          4          5
     1  C    0.000000
     2  H    1.094001   0.000000
     3  H    1.094664   1.797480   0.000000
     4  H    1.094673   1.797495   1.794878   0.000000
     5  Cl   3.774621   4.823623   3.738994   3.722106   0.000000
     6  N    1.485728   2.114516   2.104299   2.104283   3.093908
     7  H    2.090246   2.431555   2.419480   2.972930   3.594165
     8  H    2.090217   2.431417   2.972922   2.419522   3.578130
     9  H    2.085911   2.989481   2.398877   2.398822   2.035251
                    6          7          8          9
     6  N    0.000000
     7  H    1.028358   0.000000
     8  H    1.028364   1.662678   0.000000
     9  H    1.061344   1.699842   1.699958   0.000000
 Stoichiometry    CH6ClN
 Framework group  C1[X(CH6ClN)]
 Deg. of freedom    21
 Full point group                 C1      NOp   1
 Largest Abelian subgroup         C1      NOp   1
 Largest concise Abelian subgroup C1      NOp   1
                         Standard orientation:                         
 ---------------------------------------------------------------------
 Center     Atomic      Atomic             Coordinates (Angstroms)
 Number     Number       Type             X           Y           Z
 ---------------------------------------------------------------------
      1          6           0       -1.974523   -0.599804    0.000037
      2          1           0       -3.048813   -0.393430    0.012189
      3          1           0       -1.702327   -1.154648   -0.903482
      4          1           0       -1.684027   -1.165155    0.891272
      5         17           0        1.765007   -0.086308    0.000023
      6          7           0       -1.230853    0.686408    0.000008
      7          1           0       -1.466844    1.252089   -0.825724
      8          1           0       -1.450149    1.242421    0.836842
      9          1           0       -0.189853    0.479935   -0.011761
 ---------------------------------------------------------------------
 Rotational constants (GHZ):          24.7572613           2.5579344           2.3843863
 Standard basis: 6-31+G(d,p) (6D, 7F)
 There are    91 symmetry adapted cartesian basis functions of A   symmetry.
 There are    91 symmetry adapted basis functions of A   symmetry.
    91 basis functions,   162 primitive gaussians,    91 cartesian basis functions
    18 alpha electrons       18 beta electrons
       nuclear repulsion energy        98.6392407065 Hartrees.
 NAtoms=    9 NActive=    9 NUniq=    9 SFac= 1.00D+00 NAtFMM=   60 NAOKFM=F Big=F
 Integral buffers will be    131072 words long.
 Raffenetti 2 integral format.
 Two-electron integral symmetry is turned on.
 ------------------------------------------------------------------------------
 Polarizable Continuum Model (PCM)
 =================================
 Model                : PCM.
 Atomic radii         : SMD-Coulomb.
 Polarization charges : Total charges.
 Charge compensation  : None.
 Solution method      : On-the-fly selection.
 Cavity type          : VdW (van der Waals Surface) (Alpha=1.000).
 Cavity algorithm     : GePol (No added spheres)
                        Default sphere list used, NSphG=    9.
                        Lebedev-Laikov grids with approx.  5.0 points / Ang**2.
                        Smoothing algorithm: York/Karplus (Gamma=1.0000).
                        Polarization charges: spherical gaussians, with
                                              point-specific exponents (IZeta= 3).
                        Self-potential: point-specific (ISelfS= 7).
                        Self-field    : sphere-specific E.n sum rule (ISelfD= 2).
 1st derivatives      : Analytical E(r).r(x)/FMM algorithm (CHGder, D1EAlg=3).
                        Cavity 1st derivative terms included.
 Solvent              : Water, Eps=  78.355300 Eps(inf)=   1.777849
 ------------------------------------------------------------------------------
 Spheres list:
 ISph  on   Nord     Re0    Alpha      Xe            Ye            Ze
    1   C      1    1.8500  1.000     -1.974523     -0.599804      0.000037
    2   H      2    1.2000  1.000     -3.048813     -0.393430      0.012189
    3   H      3    1.2000  1.000     -1.702327     -1.154648     -0.903482
    4   H      4    1.2000  1.000     -1.684027     -1.165155      0.891272
    5  Cl      5    2.3800  1.000      1.765007     -0.086308      0.000023
    6   N      6    1.8900  1.000     -1.230853      0.686408      0.000008
    7   H      7    1.2000  1.000     -1.466844      1.252089     -0.825724
    8   H      8    1.2000  1.000     -1.450149      1.242421      0.836842
    9   H      9    1.2000  1.000     -0.189853      0.479935     -0.011761
 ------------------------------------------------------------------------------
 ------------------------------------------------------------------------------
 Atomic radii for non-electrostatic terms: SMD-CDS.
 ------------------------------------------------------------------------------
 Nuclear repulsion after PCM non-electrostatic terms =       98.6440370835 Hartrees.
 One-electron integrals computed using PRISM.
 NBasis=    91 RedAO= T EigKep=  1.79D-03  NBF=    91
 NBsUse=    91 1.00D-06 EigRej= -1.00D+00 NBFU=    91
 Initial guess from the checkpoint file:  "/home/anmol/scrh/Gau-399850.chk"
 B after Tr=    -0.000000    0.000000   -0.000000
         Rot=    0.999928   -0.001379   -0.000410    0.011926 Ang=  -1.38 deg.
 ExpMin= 4.38D-02 ExpMax= 2.52D+04 ExpMxC= 3.78D+03 IAcc=2 IRadAn=         4 AccDes= 0.00D+00
 Harris functional with IExCor= 1009 and IRadAn=       4 diagonalized for initial guess.
 HarFok:  IExCor= 1009 AccDes= 0.00D+00 IRadAn=         4 IDoV= 1 UseB2=F ITyADJ=14
 ICtDFT=  3500011 ScaDFX=  1.000000  1.000000  1.000000  1.000000
 FoFCou: FMM=F IPFlag=           0 FMFlag=      100000 FMFlg1=           0
         NFxFlg=           0 DoJE=T BraDBF=F KetDBF=T FulRan=T
         wScrn=  0.000000 ICntrl=       500 IOpCl=  0 I1Cent=   200000004 NGrid=           0
         NMat0=    1 NMatS0=      1 NMatT0=    0 NMatD0=    1 NMtDS0=    0 NMtDT0=    0
 Petite list used in FoFCou.
 Keep R1 ints in memory in canonical form, NReq=17901697.
 Requested convergence on RMS density matrix=1.00D-08 within 128 cycles.
 Requested convergence on MAX density matrix=1.00D-06.
 Requested convergence on             energy=1.00D-06.
 No special actions if energy rises.
 Inv3:  Mode=1 IEnd=     2566875.
 Iteration    1 A*A^-1 deviation from unit magnitude is 2.89D-15 for    608.
 Iteration    1 A*A^-1 deviation from orthogonality  is 1.87D-15 for    283    173.
 Iteration    1 A^-1*A deviation from unit magnitude is 3.77D-15 for    608.
 Iteration    1 A^-1*A deviation from orthogonality  is 1.08D-14 for    315    283.
 Error on total polarization charges =  0.02352
 SCF Done:  E(RM062X) =  -556.634282899     A.U. after   10 cycles
            NFock= 10  Conv=0.35D-08     -V/T= 2.0041
 SMD-CDS (non-electrostatic) energy       (kcal/mol) =       3.01
 (included in total energy above)
 D1PCM: PCM CHGder 1st derivatives, ID1Alg=3 FixD1E=F DoIter=F DoCFld=F I1PDM=0.
 Calling FoFJK, ICntrl=      2127 FMM=F ISym2X=0 I1Cent= 0 IOpClX= 0 NMat=1 NMatS=1 NMatT=0.
 ***** Axes restored to original set *****
 -------------------------------------------------------------------
 Center     Atomic                   Forces (Hartrees/Bohr)
 Number     Number              X              Y              Z
 -------------------------------------------------------------------
      1        6          -0.002241316    0.002220817   -0.000012738
      2        1           0.003883011    0.001203226    0.000019832
      3        1          -0.001144906   -0.002108061   -0.003444597
      4        1          -0.001190034   -0.002134085    0.003415794
      5       17          -0.001025427    0.000195216    0.000079053
      6        7           0.003686393   -0.001449257    0.000307999
      7        1           0.001272860    0.002724280   -0.003951094
      8        1           0.001345702    0.002699960    0.003955440
      9        1          -0.004586284   -0.003352096   -0.000369688
 -------------------------------------------------------------------
 Cartesian Forces:  Max     0.004586284 RMS     0.002437567

 GradGradGradGradGradGradGradGradGradGradGradGradGradGradGradGradGradGrad
 Berny optimization.
 Using GEDIIS/GDIIS optimizer.
 FormGI is forming the generalized inverse of G from B-inverse, IUseBI=4.
 Internal  Forces:  Max     0.006119690 RMS     0.002175518
 Search for a local minimum.
 Step number   3 out of a maximum of   41
 All quantities printed in internal units (Hartrees-Bohrs-Radians)
 Mixed Optimization -- RFO/linear search
 Update second derivatives using D2CorX and points    1    3    2
 DE=  7.15D-05 DEPred=-3.83D-04 R=-1.87D-01
 Trust test=-1.87D-01 RLast= 2.29D-01 DXMaxT set to 1.50D-01
 ITU= -1  0  0
 Use linear search instead of GDIIS.
     Eigenvalues ---    0.00413   0.00588   0.01849   0.05438   0.05681
     Eigenvalues ---    0.05889   0.06055   0.06161   0.15966   0.16000
     Eigenvalues ---    0.16000   0.16000   0.16001   0.16358   0.33498
     Eigenvalues ---    0.34383   0.35787   0.35806   0.39996   0.43636
     Eigenvalues ---    0.45038
 RFO step:  Lambda=-1.11082540D-04 EMin= 4.13135756D-03
 Quartic linear search produced a step of -0.56521.
 Iteration  1 RMS(Cart)=  0.04120863 RMS(Int)=  0.00136544
 Iteration  2 RMS(Cart)=  0.00143762 RMS(Int)=  0.00000092
 Iteration  3 RMS(Cart)=  0.00000025 RMS(Int)=  0.00000091
 Variable       Old X    -DE/DX   Delta X   Delta X   Delta X     New X
                                 (Linear)    (Quad)   (Total)
    R1        2.06736  -0.00404  -0.00615  -0.00599  -0.01214   2.05522
    R2        2.06862  -0.00418  -0.00629  -0.00642  -0.01271   2.05590
    R3        2.06863  -0.00420  -0.00630  -0.00642  -0.01272   2.05591
    R4        2.80762  -0.00036  -0.00093  -0.00122  -0.00215   2.80547
    R5        3.84607  -0.00094  -0.02058   0.00197  -0.01861   3.82745
    R6        1.94332  -0.00496  -0.00628  -0.00582  -0.01209   1.93122
    R7        1.94333  -0.00496  -0.00628  -0.00582  -0.01210   1.93123
    R8        2.00565  -0.00612  -0.00743  -0.00750  -0.01494   1.99071
    A1        1.92726  -0.00029  -0.00070  -0.00054  -0.00124   1.92602
    A2        1.92727  -0.00029  -0.00071  -0.00055  -0.00126   1.92601
    A3        1.90521   0.00070   0.00110   0.00117   0.00226   1.90747
    A4        1.92222  -0.00003  -0.00017  -0.00048  -0.00065   1.92157
    A5        1.89053  -0.00004   0.00026   0.00023   0.00049   1.89102
    A6        1.89050  -0.00004   0.00027   0.00022   0.00050   1.89100
    A7        1.94052  -0.00019  -0.00131  -0.00036  -0.00168   1.93885
    A8        1.94047  -0.00012  -0.00128  -0.00036  -0.00164   1.93884
    A9        1.89920   0.00163   0.00455   0.00350   0.00805   1.90725
   A10        1.88290   0.00003  -0.00025  -0.00122  -0.00147   1.88143
   A11        1.89990  -0.00064  -0.00085  -0.00057  -0.00142   1.89847
   A12        1.90008  -0.00076  -0.00093  -0.00108  -0.00201   1.89807
   A13        3.07039  -0.00171  -0.12073   0.02931  -0.09142   2.97897
   A14        3.08407  -0.00041  -0.03916   0.03375  -0.00541   3.07866
    D1       -1.04927   0.00010   0.00112   0.00087   0.00200  -1.04728
    D2        1.04899  -0.00007  -0.00093  -0.00115  -0.00208   1.04691
    D3        3.14155  -0.00004   0.00006  -0.00045  -0.00039   3.14116
    D4        1.04997   0.00014   0.00108   0.00104   0.00212   1.05209
    D5       -3.13495  -0.00003  -0.00097  -0.00099  -0.00196  -3.13691
    D6       -1.04239   0.00000   0.00002  -0.00029  -0.00027  -1.04266
    D7        3.13467   0.00007   0.00118   0.00072   0.00190   3.13657
    D8       -1.05025  -0.00011  -0.00088  -0.00131  -0.00218  -1.05244
    D9        1.04231  -0.00007   0.00011  -0.00061  -0.00049   1.04181
         Item               Value     Threshold  Converged?
 Maximum Force            0.006120     0.000450     NO 
 RMS     Force            0.002176     0.000300     NO 
 Maximum Displacement     0.127909     0.001800     NO 
 RMS     Displacement     0.041500     0.001200     NO 
 Predicted change in Energy=-1.925446D-04
 GradGradGradGradGradGradGradGradGradGradGradGradGradGradGradGradGradGrad

                          Input orientation:                          
 ---------------------------------------------------------------------
 Center     Atomic      Atomic             Coordinates (Angstroms)
 Number     Number       Type             X           Y           Z
 ---------------------------------------------------------------------
      1          6           0       -1.932477    0.600590   -0.000094
      2          1           0       -3.005357    0.422491    0.005676
      3          1           0       -1.635681    1.152130    0.889469
      4          1           0       -1.644944    1.150111   -0.893945
      5         17           0        1.731720    0.139967    0.010403
      6          7           0       -1.219196   -0.701423   -0.002341
      7          1           0       -1.456308   -1.252009    0.825325
      8          1           0       -1.465156   -1.253998   -0.826094
      9          1           0       -0.180034   -0.528686   -0.008364
 ---------------------------------------------------------------------
                    Distance matrix (angstroms):
                    1          2          3          4          5
     1  C    0.000000
     2  H    1.087577   0.000000
     3  H    1.087937   1.785911   0.000000
     4  H    1.087942   1.785909   1.783439   0.000000
     5  Cl   3.693051   4.745497   3.624447   3.638694   0.000000
     6  N    1.484592   2.110360   2.098677   2.098665   3.068551
     7  H    2.083309   2.423908   2.411675   2.960009   3.572845
     8  H    2.083306   2.423773   2.960015   2.411777   3.586487
     9  H    2.084800   2.981172   2.397948   2.397619   2.025402
                    6          7          8          9
     6  N    0.000000
     7  H    1.021958   0.000000
     8  H    1.021961   1.651444   0.000000
     9  H    1.053439   1.687338   1.687099   0.000000
 Stoichiometry    CH6ClN
 Framework group  C1[X(CH6ClN)]
 Deg. of freedom    21
 Full point group                 C1      NOp   1
 Largest Abelian subgroup         C1      NOp   1
 Largest concise Abelian subgroup C1      NOp   1
                         Standard orientation:                         
 ---------------------------------------------------------------------
 Center     Atomic      Atomic             Coordinates (Angstroms)
 Number     Number       Type             X           Y           Z
 ---------------------------------------------------------------------
      1          6           0       -1.918036   -0.618878   -0.000025
      2          1           0       -2.994318   -0.462861   -0.009976
      3          1           0       -1.606979   -1.167293   -0.886643
      4          1           0       -1.622315   -1.159276    0.896712
      5         17           0        1.735955   -0.083175   -0.000021
      6          7           0       -1.231628    0.697503   -0.000024
      7          1           0       -1.477185    1.240230   -0.830413
      8          1           0       -1.491658    1.247768    0.820950
      9          1           0       -0.189167    0.546155    0.010050
 ---------------------------------------------------------------------
 Rotational constants (GHZ):          24.0911668           2.6497835           2.4562981
 Standard basis: 6-31+G(d,p) (6D, 7F)
 There are    91 symmetry adapted cartesian basis functions of A   symmetry.
 There are    91 symmetry adapted basis functions of A   symmetry.
    91 basis functions,   162 primitive gaussians,    91 cartesian basis functions
    18 alpha electrons       18 beta electrons
       nuclear repulsion energy        99.4931489255 Hartrees.
 NAtoms=    9 NActive=    9 NUniq=    9 SFac= 1.00D+00 NAtFMM=   60 NAOKFM=F Big=F
 Integral buffers will be    131072 words long.
 Raffenetti 2 integral format.
 Two-electron integral symmetry is turned on.
 ------------------------------------------------------------------------------
 Polarizable Continuum Model (PCM)
 =================================
 Model                : PCM.
 Atomic radii         : SMD-Coulomb.
 Polarization charges : Total charges.
 Charge compensation  : None.
 Solution method      : On-the-fly selection.
 Cavity type          : VdW (van der Waals Surface) (Alpha=1.000).
 Cavity algorithm     : GePol (No added spheres)
                        Default sphere list used, NSphG=    9.
                        Lebedev-Laikov grids with approx.  5.0 points / Ang**2.
                        Smoothing algorithm: York/Karplus (Gamma=1.0000).
                        Polarization charges: spherical gaussians, with
                                              point-specific exponents (IZeta= 3).
                        Self-potential: point-specific (ISelfS= 7).
                        Self-field    : sphere-specific E.n sum rule (ISelfD= 2).
 1st derivatives      : Analytical E(r).r(x)/FMM algorithm (CHGder, D1EAlg=3).
                        Cavity 1st derivative terms included.
 Solvent              : Water, Eps=  78.355300 Eps(inf)=   1.777849
 ------------------------------------------------------------------------------
 Spheres list:
 ISph  on   Nord     Re0    Alpha      Xe            Ye            Ze
    1   C      1    1.8500  1.000     -1.918036     -0.618878     -0.000025
    2   H      2    1.2000  1.000     -2.994318     -0.462861     -0.009976
    3   H      3    1.2000  1.000     -1.606979     -1.167293     -0.886643
    4   H      4    1.2000  1.000     -1.622315     -1.159276      0.896712
    5  Cl      5    2.3800  1.000      1.735955     -0.083175     -0.000021
    6   N      6    1.8900  1.000     -1.231628      0.697503     -0.000024
    7   H      7    1.2000  1.000     -1.477185      1.240230     -0.830413
    8   H      8    1.2000  1.000     -1.491658      1.247768      0.820950
    9   H      9    1.2000  1.000     -0.189167      0.546155      0.010050
 ------------------------------------------------------------------------------
 ------------------------------------------------------------------------------
 Atomic radii for non-electrostatic terms: SMD-CDS.
 ------------------------------------------------------------------------------
 Nuclear repulsion after PCM non-electrostatic terms =       99.4978791145 Hartrees.
 One-electron integrals computed using PRISM.
 NBasis=    91 RedAO= T EigKep=  1.77D-03  NBF=    91
 NBsUse=    91 1.00D-06 EigRej= -1.00D+00 NBFU=    91
 Lowest energy guess from the checkpoint file:  "/home/anmol/scrh/Gau-399850.chk"
 B after Tr=     0.000000    0.000000   -0.000000
         Rot=    0.999967    0.000441    0.000143    0.008167 Ang=   0.94 deg.
 B after Tr=     0.000000    0.000000   -0.000000
         Rot=    0.999991    0.002057    0.000521   -0.003768 Ang=   0.50 deg.
 Keep R1 ints in memory in canonical form, NReq=17901697.
 Requested convergence on RMS density matrix=1.00D-08 within 128 cycles.
 Requested convergence on MAX density matrix=1.00D-06.
 Requested convergence on             energy=1.00D-06.
 No special actions if energy rises.
 Inv3:  Mode=1 IEnd=     2550252.
 Iteration    1 A*A^-1 deviation from unit magnitude is 2.89D-15 for    366.
 Iteration    1 A*A^-1 deviation from orthogonality  is 1.34D-15 for    405    224.
 Iteration    1 A^-1*A deviation from unit magnitude is 2.89D-15 for    366.
 Iteration    1 A^-1*A deviation from orthogonality  is 1.44D-15 for    687    366.
 Error on total polarization charges =  0.02321
 SCF Done:  E(RM062X) =  -556.634562590     A.U. after    9 cycles
            NFock=  9  Conv=0.54D-08     -V/T= 2.0040
 SMD-CDS (non-electrostatic) energy       (kcal/mol) =       2.97
 (included in total energy above)
 D1PCM: PCM CHGder 1st derivatives, ID1Alg=3 FixD1E=F DoIter=F DoCFld=F I1PDM=0.
 Calling FoFJK, ICntrl=      2127 FMM=F ISym2X=0 I1Cent= 0 IOpClX= 0 NMat=1 NMatS=1 NMatT=0.
 ***** Axes restored to original set *****
 -------------------------------------------------------------------
 Center     Atomic                   Forces (Hartrees/Bohr)
 Number     Number              X              Y              Z
 -------------------------------------------------------------------
      1        6           0.000175925   -0.000108455    0.000005557
      2        1          -0.000275720   -0.000106020    0.000001892
      3        1           0.000118140    0.000164031    0.000325685
      4        1           0.000111452    0.000173428   -0.000319250
      5       17           0.000155853    0.000179325   -0.000064872
      6        7           0.000259218    0.000252865   -0.000277364
      7        1           0.000023673   -0.000210833    0.000332216
      8        1          -0.000100643   -0.000210963   -0.000310635
      9        1          -0.000467897   -0.000133378    0.000306770
 -------------------------------------------------------------------
 Cartesian Forces:  Max     0.000467897 RMS     0.000221729

 GradGradGradGradGradGradGradGradGradGradGradGradGradGradGradGradGradGrad
 Berny optimization.
 Using GEDIIS/GDIIS optimizer.
 FormGI is forming the generalized inverse of G from B-inverse, IUseBI=4.
 Internal  Forces:  Max     0.000389035 RMS     0.000197898
 Search for a local minimum.
 Step number   4 out of a maximum of   41
 All quantities printed in internal units (Hartrees-Bohrs-Radians)
 Mixed Optimization -- En-DIIS/RFO-DIIS
 Update second derivatives using D2CorX and points    1    3    2    4
 DE= -2.08D-04 DEPred=-1.93D-04 R= 1.08D+00
 TightC=F SS=  1.41D+00  RLast= 1.39D-01 DXNew= 2.5227D-01 4.1723D-01
 Trust test= 1.08D+00 RLast= 1.39D-01 DXMaxT set to 2.52D-01
 ITU=  1 -1  0  0
 Use linear search instead of GDIIS.
     Eigenvalues ---    0.00452   0.00588   0.02337   0.04786   0.05721
     Eigenvalues ---    0.05850   0.06039   0.06155   0.15930   0.15997
     Eigenvalues ---    0.16000   0.16000   0.16013   0.16459   0.34132
     Eigenvalues ---    0.35787   0.35800   0.36227   0.39954   0.45001
     Eigenvalues ---    0.45039
 RFO step:  Lambda=-1.74033448D-05 EMin= 4.51988194D-03
 Quartic linear search produced a step of -0.09005.
 Iteration  1 RMS(Cart)=  0.02123089 RMS(Int)=  0.00038703
 Iteration  2 RMS(Cart)=  0.00045763 RMS(Int)=  0.00000029
 Iteration  3 RMS(Cart)=  0.00000011 RMS(Int)=  0.00000028
 Variable       Old X    -DE/DX   Delta X   Delta X   Delta X     New X
                                 (Linear)    (Quad)   (Total)
    R1        2.05522   0.00028   0.00011   0.00033   0.00044   2.05566
    R2        2.05590   0.00038   0.00014   0.00047   0.00061   2.05651
    R3        2.05591   0.00038   0.00014   0.00048   0.00062   2.05654
    R4        2.80547   0.00006   0.00005  -0.00001   0.00004   2.80551
    R5        3.82745   0.00020  -0.00160   0.00812   0.00652   3.83397
    R6        1.93122   0.00038   0.00009   0.00044   0.00053   1.93175
    R7        1.93123   0.00039   0.00009   0.00046   0.00055   1.93177
    R8        1.99071  -0.00031   0.00016  -0.00116  -0.00100   1.98971
    A1        1.92602   0.00004   0.00000   0.00024   0.00024   1.92626
    A2        1.92601   0.00004   0.00000   0.00022   0.00022   1.92623
    A3        1.90747  -0.00005  -0.00003  -0.00026  -0.00029   1.90719
    A4        1.92157   0.00002   0.00003   0.00002   0.00006   1.92162
    A5        1.89102  -0.00003  -0.00000  -0.00012  -0.00012   1.89090
    A6        1.89100  -0.00003  -0.00000  -0.00012  -0.00012   1.89088
    A7        1.93885   0.00012  -0.00006   0.00087   0.00081   1.93966
    A8        1.93884   0.00006  -0.00006   0.00083   0.00078   1.93962
    A9        1.90725  -0.00038   0.00000  -0.00251  -0.00251   1.90475
   A10        1.88143  -0.00001   0.00009   0.00031   0.00040   1.88183
   A11        1.89847   0.00005  -0.00001  -0.00033  -0.00034   1.89814
   A12        1.89807   0.00017   0.00003   0.00085   0.00088   1.89896
   A13        2.97897  -0.00022  -0.01100   0.01785   0.00684   2.98581
   A14        3.07866  -0.00036  -0.00575  -0.04740  -0.05315   3.02551
    D1       -1.04728  -0.00007  -0.00000  -0.00088  -0.00088  -1.04815
    D2        1.04691   0.00004   0.00004   0.00065   0.00069   1.04759
    D3        3.14116   0.00004   0.00005   0.00061   0.00065  -3.14138
    D4        1.05209  -0.00007  -0.00002  -0.00081  -0.00083   1.05126
    D5       -3.13691   0.00004   0.00002   0.00072   0.00074  -3.13618
    D6       -1.04266   0.00004   0.00003   0.00067   0.00070  -1.04196
    D7        3.13657  -0.00007   0.00002  -0.00092  -0.00090   3.13567
    D8       -1.05244   0.00004   0.00006   0.00061   0.00067  -1.05177
    D9        1.04181   0.00004   0.00006   0.00057   0.00063   1.04244
         Item               Value     Threshold  Converged?
 Maximum Force            0.000389     0.000450     YES
 RMS     Force            0.000198     0.000300     YES
 Maximum Displacement     0.065954     0.001800     NO 
 RMS     Displacement     0.021342     0.001200     NO 
 Predicted change in Energy=-1.123007D-05
 GradGradGradGradGradGradGradGradGradGradGradGradGradGradGradGradGradGrad

                          Input orientation:                          
 ---------------------------------------------------------------------
 Center     Atomic      Atomic             Coordinates (Angstroms)
 Number     Number       Type             X           Y           Z
 ---------------------------------------------------------------------
      1          6           0       -1.928467    0.600340    0.000893
      2          1           0       -3.002338    0.427288   -0.012637
      3          1           0       -1.644115    1.146432    0.898244
      4          1           0       -1.622648    1.152514   -0.885626
      5         17           0        1.724578    0.155166   -0.024498
      6          7           0       -1.221722   -0.705251    0.004935
      7          1           0       -1.474735   -1.258783    0.826248
      8          1           0       -1.455271   -1.253318   -0.825772
      9          1           0       -0.182717   -0.535218    0.018249
 ---------------------------------------------------------------------
                    Distance matrix (angstroms):
                    1          2          3          4          5
     1  C    0.000000
     2  H    1.087809   0.000000
     3  H    1.088261   1.786517   0.000000
     4  H    1.088273   1.786507   1.784010   0.000000
     5  Cl   3.680158   4.734757   3.630723   3.597244   0.000000
     6  N    1.484612   2.110343   2.098844   2.098841   3.069506
     7  H    2.084088   2.424899   2.412246   2.960869   3.599809
     8  H    2.084067   2.424674   2.960860   2.412389   3.568936
     9  H    2.082651   2.979536   2.395417   2.395586   2.028849
                    6          7          8          9
     6  N    0.000000
     7  H    1.022237   0.000000
     8  H    1.022251   1.652144   0.000000
     9  H    1.052910   1.686926   1.687434   0.000000
 Stoichiometry    CH6ClN
 Framework group  C1[X(CH6ClN)]
 Deg. of freedom    21
 Full point group                 C1      NOp   1
 Largest Abelian subgroup         C1      NOp   1
 Largest concise Abelian subgroup C1      NOp   1
                         Standard orientation:                         
 ---------------------------------------------------------------------
 Center     Atomic      Atomic             Coordinates (Angstroms)
 Number     Number       Type             X           Y           Z
 ---------------------------------------------------------------------
      1          6           0       -1.907439   -0.623849    0.000050
      2          1           0       -2.985376   -0.479480    0.023275
      3          1           0       -1.615936   -1.155784   -0.903488
      4          1           0       -1.579978   -1.174011    0.880066
      5         17           0        1.732611   -0.082002    0.000047
      6          7           0       -1.235598    0.700048    0.000046
      7          1           0       -1.509785    1.252506   -0.815171
      8          1           0       -1.476905    1.235782    0.836561
      9          1           0       -0.192592    0.557770   -0.022666
 ---------------------------------------------------------------------
 Rotational constants (GHZ):          23.9122611           2.6616605           2.4646667
 Standard basis: 6-31+G(d,p) (6D, 7F)
 There are    91 symmetry adapted cartesian basis functions of A   symmetry.
 There are    91 symmetry adapted basis functions of A   symmetry.
    91 basis functions,   162 primitive gaussians,    91 cartesian basis functions
    18 alpha electrons       18 beta electrons
       nuclear repulsion energy        99.5494550928 Hartrees.
 NAtoms=    9 NActive=    9 NUniq=    9 SFac= 1.00D+00 NAtFMM=   60 NAOKFM=F Big=F
 Integral buffers will be    131072 words long.
 Raffenetti 2 integral format.
 Two-electron integral symmetry is turned on.
 ------------------------------------------------------------------------------
 Polarizable Continuum Model (PCM)
 =================================
 Model                : PCM.
 Atomic radii         : SMD-Coulomb.
 Polarization charges : Total charges.
 Charge compensation  : None.
 Solution method      : On-the-fly selection.
 Cavity type          : VdW (van der Waals Surface) (Alpha=1.000).
 Cavity algorithm     : GePol (No added spheres)
                        Default sphere list used, NSphG=    9.
                        Lebedev-Laikov grids with approx.  5.0 points / Ang**2.
                        Smoothing algorithm: York/Karplus (Gamma=1.0000).
                        Polarization charges: spherical gaussians, with
                                              point-specific exponents (IZeta= 3).
                        Self-potential: point-specific (ISelfS= 7).
                        Self-field    : sphere-specific E.n sum rule (ISelfD= 2).
 1st derivatives      : Analytical E(r).r(x)/FMM algorithm (CHGder, D1EAlg=3).
                        Cavity 1st derivative terms included.
 Solvent              : Water, Eps=  78.355300 Eps(inf)=   1.777849
 ------------------------------------------------------------------------------
 Spheres list:
 ISph  on   Nord     Re0    Alpha      Xe            Ye            Ze
    1   C      1    1.8500  1.000     -1.907439     -0.623849      0.000050
    2   H      2    1.2000  1.000     -2.985376     -0.479480      0.023275
    3   H      3    1.2000  1.000     -1.615936     -1.155784     -0.903488
    4   H      4    1.2000  1.000     -1.579978     -1.174011      0.880066
    5  Cl      5    2.3800  1.000      1.732611     -0.082002      0.000047
    6   N      6    1.8900  1.000     -1.235598      0.700048      0.000046
    7   H      7    1.2000  1.000     -1.509785      1.252506     -0.815171
    8   H      8    1.2000  1.000     -1.476905      1.235782      0.836561
    9   H      9    1.2000  1.000     -0.192592      0.557770     -0.022666
 ------------------------------------------------------------------------------
 ------------------------------------------------------------------------------
 Atomic radii for non-electrostatic terms: SMD-CDS.
 ------------------------------------------------------------------------------
 Nuclear repulsion after PCM non-electrostatic terms =       99.5541799190 Hartrees.
 One-electron integrals computed using PRISM.
 NBasis=    91 RedAO= T EigKep=  1.77D-03  NBF=    91
 NBsUse=    91 1.00D-06 EigRej= -1.00D+00 NBFU=    91
 Initial guess from the checkpoint file:  "/home/anmol/scrh/Gau-399850.chk"
 B after Tr=     0.000000   -0.000000    0.000000
         Rot=    0.999995   -0.002881   -0.000805   -0.001062 Ang=  -0.36 deg.
 ExpMin= 4.38D-02 ExpMax= 2.52D+04 ExpMxC= 3.78D+03 IAcc=2 IRadAn=         4 AccDes= 0.00D+00
 Harris functional with IExCor= 1009 and IRadAn=       4 diagonalized for initial guess.
 HarFok:  IExCor= 1009 AccDes= 0.00D+00 IRadAn=         4 IDoV= 1 UseB2=F ITyADJ=14
 ICtDFT=  3500011 ScaDFX=  1.000000  1.000000  1.000000  1.000000
 FoFCou: FMM=F IPFlag=           0 FMFlag=      100000 FMFlg1=           0
         NFxFlg=           0 DoJE=T BraDBF=F KetDBF=T FulRan=T
         wScrn=  0.000000 ICntrl=       500 IOpCl=  0 I1Cent=   200000004 NGrid=           0
         NMat0=    1 NMatS0=      1 NMatT0=    0 NMatD0=    1 NMtDS0=    0 NMtDT0=    0
 Petite list used in FoFCou.
 Keep R1 ints in memory in canonical form, NReq=17901697.
 Requested convergence on RMS density matrix=1.00D-08 within 128 cycles.
 Requested convergence on MAX density matrix=1.00D-06.
 Requested convergence on             energy=1.00D-06.
 No special actions if energy rises.
 Inv3:  Mode=1 IEnd=     2544723.
 Iteration    1 A*A^-1 deviation from unit magnitude is 3.00D-15 for    550.
 Iteration    1 A*A^-1 deviation from orthogonality  is 1.47D-15 for    283     80.
 Iteration    1 A^-1*A deviation from unit magnitude is 2.66D-15 for     73.
 Iteration    1 A^-1*A deviation from orthogonality  is 1.24D-15 for    339     76.
 Error on total polarization charges =  0.02321
 SCF Done:  E(RM062X) =  -556.634558432     A.U. after    8 cycles
            NFock=  8  Conv=0.74D-08     -V/T= 2.0040
 SMD-CDS (non-electrostatic) energy       (kcal/mol) =       2.96
 (included in total energy above)
 D1PCM: PCM CHGder 1st derivatives, ID1Alg=3 FixD1E=F DoIter=F DoCFld=F I1PDM=0.
 Calling FoFJK, ICntrl=      2127 FMM=F ISym2X=0 I1Cent= 0 IOpClX= 0 NMat=1 NMatS=1 NMatT=0.
 ***** Axes restored to original set *****
 -------------------------------------------------------------------
 Center     Atomic                   Forces (Hartrees/Bohr)
 Number     Number              X              Y              Z
 -------------------------------------------------------------------
      1        6           0.000011024   -0.000017778   -0.000032763
      2        1          -0.000126589   -0.000043820    0.000001941
      3        1           0.000041446    0.000068073    0.000125768
      4        1           0.000043698    0.000041606   -0.000128370
      5       17           0.000171429    0.000127441    0.000147510
      6        7           0.000239364    0.000039566    0.000597033
      7        1          -0.000155073   -0.000060647    0.000107390
      8        1           0.000118046   -0.000054087   -0.000138754
      9        1          -0.000343346   -0.000100354   -0.000679756
 -------------------------------------------------------------------
 Cartesian Forces:  Max     0.000679756 RMS     0.000211681

 GradGradGradGradGradGradGradGradGradGradGradGradGradGradGradGradGradGrad
 Berny optimization.
 Using GEDIIS/GDIIS optimizer.
 FormGI is forming the generalized inverse of G from B-inverse, IUseBI=4.
 Internal  Forces:  Max     0.000470579 RMS     0.000140079
 Search for a local minimum.
 Step number   5 out of a maximum of   41
 All quantities printed in internal units (Hartrees-Bohrs-Radians)
 Mixed Optimization -- En-DIIS/RFO-DIIS
 Swapping is turned off.
 Update second derivatives using D2CorX and points    1    3    2    4    5
 DE=  4.16D-06 DEPred=-1.12D-05 R=-3.70D-01
 Trust test=-3.70D-01 RLast= 5.41D-02 DXMaxT set to 1.26D-01
 ITU= -1  1 -1  0  0
     Eigenvalues ---    0.00588   0.01501   0.02227   0.03550   0.05700
     Eigenvalues ---    0.06035   0.06048   0.06157   0.15585   0.15999
     Eigenvalues ---    0.16000   0.16004   0.16137   0.16234   0.34150
     Eigenvalues ---    0.35788   0.35800   0.36319   0.38512   0.45040
     Eigenvalues ---    0.45135
 En-DIIS/RFO-DIIS/Sim-DIIS IScMMF=       -3 using points:     5    4
 RFO step:  Lambda=-2.15365988D-05.
 DidBck=T Rises=T En-DIIS coefs:    0.45619    0.54381
 Iteration  1 RMS(Cart)=  0.01339275 RMS(Int)=  0.00016050
 Iteration  2 RMS(Cart)=  0.00019326 RMS(Int)=  0.00000013
 Iteration  3 RMS(Cart)=  0.00000002 RMS(Int)=  0.00000013
 Variable       Old X    -DE/DX   Delta X   Delta X   Delta X     New X
                                 (Linear)    (Quad)   (Total)
    R1        2.05566   0.00012  -0.00024   0.00059   0.00035   2.05601
    R2        2.05651   0.00017  -0.00033   0.00078   0.00045   2.05697
    R3        2.05654   0.00014  -0.00034   0.00077   0.00043   2.05697
    R4        2.80551   0.00006  -0.00002   0.00006   0.00004   2.80555
    R5        3.83397   0.00019  -0.00354   0.00893   0.00539   3.83936
    R6        1.93175   0.00016  -0.00029   0.00068   0.00040   1.93214
    R7        1.93177   0.00012  -0.00030   0.00067   0.00037   1.93214
    R8        1.98971  -0.00018   0.00054  -0.00110  -0.00056   1.98916
    A1        1.92626   0.00001  -0.00013   0.00028   0.00015   1.92641
    A2        1.92623   0.00002  -0.00012   0.00029   0.00018   1.92641
    A3        1.90719   0.00000   0.00016  -0.00034  -0.00019   1.90700
    A4        1.92162   0.00004  -0.00003   0.00013   0.00010   1.92172
    A5        1.89090  -0.00004   0.00007  -0.00020  -0.00014   1.89076
    A6        1.89088  -0.00003   0.00007  -0.00018  -0.00011   1.89077
    A7        1.93966  -0.00007  -0.00044   0.00083   0.00039   1.94005
    A8        1.93962   0.00007  -0.00042   0.00085   0.00043   1.94004
    A9        1.90475  -0.00010   0.00136  -0.00290  -0.00154   1.90321
   A10        1.88183   0.00002  -0.00022   0.00047   0.00025   1.88208
   A11        1.89814   0.00017   0.00018   0.00045   0.00064   1.89877
   A12        1.89896  -0.00009  -0.00048   0.00034  -0.00014   1.89882
   A13        2.98581  -0.00035  -0.00372  -0.01336  -0.01708   2.96873
   A14        3.02551   0.00047   0.02891   0.00022   0.02913   3.05463
    D1       -1.04815   0.00002   0.00048  -0.00083  -0.00035  -1.04850
    D2        1.04759   0.00005  -0.00038   0.00089   0.00051   1.04811
    D3       -3.14138  -0.00007  -0.00035  -0.00003  -0.00039   3.14142
    D4        1.05126   0.00002   0.00045  -0.00082  -0.00036   1.05090
    D5       -3.13618   0.00005  -0.00040   0.00090   0.00050  -3.13568
    D6       -1.04196  -0.00008  -0.00038  -0.00002  -0.00040  -1.04237
    D7        3.13567   0.00002   0.00049  -0.00088  -0.00038   3.13528
    D8       -1.05177   0.00005  -0.00036   0.00084   0.00048  -1.05129
[...]
 Thermal correction to Gibbs Free Energy=         0.051258
 Sum of electronic and zero-point Energies=           -556.554702
 Sum of electronic and thermal Energies=              -556.549440
 Sum of electronic and thermal Enthalpies=            -556.548496
 Sum of electronic and thermal Free Energies=         -556.583312
 
                     E (Thermal)             CV                S
                      KCal/Mol        Cal/Mol-Kelvin    Cal/Mol-Kelvin
 Total                   53.419             15.131             73.276
 Electronic               0.000              0.000              0.000
 Translational            0.889              2.981             38.525
 Rotational               0.889              2.981             25.136
 Vibrational             51.642              9.169              9.615
 Vibration     1          0.604              1.950              3.471
 Vibration     2          0.622              1.889              2.527
 Vibration     3          0.640              1.833              2.091
 Vibration     4          0.742              1.535              1.083
                       Q            Log10(Q)             Ln(Q)
 Total Bot       0.264958D-23        -23.576824        -54.287643
 Total V=0       0.144440D+14         13.159689         30.301303
 Vib (Bot)       0.176801D-35        -35.752515        -82.323208
 Vib (Bot)    1  0.207048D+01          0.316071          0.727781
 Vib (Bot)    2  0.124752D+01          0.096046          0.221154
 Vib (Bot)    3  0.972721D+00         -0.012012         -0.027658
 Vib (Bot)    4  0.493266D+00         -0.306919         -0.706707
 Vib (V=0)       0.963823D+01          0.983997          2.265737
 Vib (V=0)    1  0.263000D+01          0.419955          0.966983
 Vib (V=0)    2  0.184398D+01          0.265757          0.611929
 Vib (V=0)    3  0.159370D+01          0.202407          0.466060
 Vib (V=0)    4  0.120236D+01          0.080035          0.184287
 Electronic      0.100000D+01          0.000000          0.000000
 Translational   0.215650D+08          7.333750         16.886583
 Rotational      0.694931D+05          4.841942         11.148983
 ***** Axes restored to original set *****
 -------------------------------------------------------------------
 Center     Atomic                   Forces (Hartrees/Bohr)
 Number     Number              X              Y              Z
 -------------------------------------------------------------------
      1        6          -0.000009280   -0.000011875    0.000000075
      2        1          -0.000011888   -0.000017172    0.000000055
      3        1          -0.000015355   -0.000006819   -0.000001312
      4        1          -0.000015413   -0.000007294    0.000001467
      5       17           0.000004940    0.000034158   -0.000000944
      6        7           0.000009026    0.000020654   -0.000003451
      7        1           0.000016474   -0.000004480    0.000003610
      8        1           0.000015204   -0.000004028   -0.000003528
      9        1           0.000006292   -0.000003145    0.000004027
 -------------------------------------------------------------------
 Cartesian Forces:  Max     0.000034158 RMS     0.000011519
 FormGI is forming the generalized inverse of G from B-inverse, IUseBI=4.

 GradGradGradGradGradGradGradGradGradGradGradGradGradGradGradGradGradGrad
 Berny optimization.
 Internal  Forces:  Max     0.000024928 RMS     0.000006045
 Search for a local minimum.
 Step number   1 out of a maximum of    2
 All quantities printed in internal units (Hartrees-Bohrs-Radians)
 Second derivative matrix not updated -- analytic derivatives used.
 ITU=  0
     Eigenvalues ---    0.00197   0.01255   0.01446   0.02387   0.04259
     Eigenvalues ---    0.04373   0.04736   0.04784   0.12019   0.13356
     Eigenvalues ---    0.13384   0.13803   0.19020   0.19441   0.34911
     Eigenvalues ---    0.35702   0.36063   0.36127   0.36721   0.44309
     Eigenvalues ---    0.44557
 Angle between quadratic step and forces=  50.10 degrees.
 Linear search not attempted -- first point.
 Iteration  1 RMS(Cart)=  0.00028037 RMS(Int)=  0.00000003
 Iteration  2 RMS(Cart)=  0.00000007 RMS(Int)=  0.00000000
 Variable       Old X    -DE/DX   Delta X   Delta X   Delta X     New X
                                 (Linear)    (Quad)   (Total)
    R1        2.05595   0.00001   0.00000   0.00002   0.00002   2.05597
    R2        2.05690  -0.00000   0.00000  -0.00001  -0.00001   2.05689
    R3        2.05690  -0.00000   0.00000  -0.00001  -0.00001   2.05689
    R4        2.80599   0.00000   0.00000  -0.00001  -0.00001   2.80599
    R5        3.84931   0.00001   0.00000   0.00037   0.00037   3.84968
    R6        1.93208   0.00000   0.00000   0.00001   0.00001   1.93209
    R7        1.93208   0.00000   0.00000   0.00001   0.00001   1.93209
    R8        1.98755   0.00001   0.00000  -0.00003  -0.00003   1.98752
    A1        1.92656  -0.00000   0.00000  -0.00002  -0.00002   1.92654
    A2        1.92656  -0.00000   0.00000  -0.00002  -0.00002   1.92654
    A3        1.90685   0.00001   0.00000   0.00001   0.00001   1.90686
    A4        1.92183   0.00000   0.00000   0.00002   0.00002   1.92184
    A5        1.89063  -0.00000   0.00000   0.00001   0.00001   1.89064
    A6        1.89064  -0.00000   0.00000   0.00000   0.00000   1.89064
    A7        1.93976  -0.00000   0.00000  -0.00001  -0.00001   1.93975
    A8        1.93977  -0.00000   0.00000  -0.00002  -0.00002   1.93975
    A9        1.90354   0.00002   0.00000   0.00020   0.00020   1.90375
   A10        1.88204   0.00000   0.00000  -0.00002  -0.00002   1.88202
   A11        1.89893  -0.00001   0.00000  -0.00008  -0.00008   1.89885
   A12        1.89894  -0.00001   0.00000  -0.00008  -0.00008   1.89885
   A13        2.96254   0.00001   0.00000   0.00031   0.00031   2.96285
   A14        3.05422  -0.00000   0.00000  -0.00012  -0.00012   3.05410
    D1       -1.04813   0.00000   0.00000   0.00005   0.00005  -1.04807
    D2        1.04806  -0.00000   0.00000   0.00001   0.00001   1.04807
    D3        3.14156   0.00000   0.00000   0.00003   0.00003   3.14159
    D4        1.05128   0.00000   0.00000   0.00004   0.00004   1.05132
    D5       -3.13572  -0.00000   0.00000   0.00000   0.00000  -3.13572
    D6       -1.04222   0.00000   0.00000   0.00002   0.00002  -1.04220
    D7        3.13564   0.00000   0.00000   0.00007   0.00007   3.13571
    D8       -1.05136  -0.00000   0.00000   0.00003   0.00003  -1.05133
    D9        1.04215   0.00000   0.00000   0.00005   0.00005   1.04219
         Item               Value     Threshold  Converged?
 Maximum Force            0.000025     0.000450     YES
 RMS     Force            0.000006     0.000300     YES
 Maximum Displacement     0.000833     0.001800     YES
 RMS     Displacement     0.000280     0.001200     YES
 Predicted change in Energy=-6.126939D-09
 Optimization completed.
    -- Stationary point found.
                           ----------------------------
                           !   Optimized Parameters   !
                           ! (Angstroms and Degrees)  !
 --------------------------                            --------------------------
 ! Name  Definition              Value          Derivative Info.                !
 --------------------------------------------------------------------------------
 ! R1    R(1,2)                  1.088          -DE/DX =    0.0                 !
 ! R2    R(1,3)                  1.0885         -DE/DX =    0.0                 !
 ! R3    R(1,4)                  1.0885         -DE/DX =    0.0                 !
 ! R4    R(1,6)                  1.4849         -DE/DX =    0.0                 !
 ! R5    R(5,9)                  2.037          -DE/DX =    0.0                 !
 ! R6    R(6,7)                  1.0224         -DE/DX =    0.0                 !
 ! R7    R(6,8)                  1.0224         -DE/DX =    0.0                 !
 ! R8    R(6,9)                  1.0518         -DE/DX =    0.0                 !
 ! A1    A(2,1,3)              110.3835         -DE/DX =    0.0                 !
 ! A2    A(2,1,4)              110.3835         -DE/DX =    0.0                 !
 ! A3    A(2,1,6)              109.2542         -DE/DX =    0.0                 !
 ! A4    A(3,1,4)              110.1126         -DE/DX =    0.0                 !
 ! A5    A(3,1,6)              108.3251         -DE/DX =    0.0                 !
 ! A6    A(4,1,6)              108.3254         -DE/DX =    0.0                 !
 ! A7    A(1,6,7)              111.1401         -DE/DX =    0.0                 !
 ! A8    A(1,6,8)              111.1404         -DE/DX =    0.0                 !
 ! A9    A(1,6,9)              109.0651         -DE/DX =    0.0                 !
 ! A10   A(7,6,8)              107.833          -DE/DX =    0.0                 !
 ! A11   A(7,6,9)              108.8009         -DE/DX =    0.0                 !
 ! A12   A(8,6,9)              108.8011         -DE/DX =    0.0                 !
 ! A13   L(5,9,6,3,-1)         169.7409         -DE/DX =    0.0                 !
 ! A14   L(5,9,6,3,-2)         174.9939         -DE/DX =    0.0                 !
 ! D1    D(2,1,6,7)            -60.0534         -DE/DX =    0.0                 !
 ! D2    D(2,1,6,8)             60.0491         -DE/DX =    0.0                 !
 ! D3    D(2,1,6,9)            179.9981         -DE/DX =    0.0                 !
 ! D4    D(3,1,6,7)             60.2339         -DE/DX =    0.0                 !
 ! D5    D(3,1,6,8)           -179.6635         -DE/DX =    0.0                 !
 ! D6    D(3,1,6,9)            -59.7146         -DE/DX =    0.0                 !
 ! D7    D(4,1,6,7)            179.6591         -DE/DX =    0.0                 !
 ! D8    D(4,1,6,8)            -60.2384         -DE/DX =    0.0                 !
 ! D9    D(4,1,6,9)             59.7105         -DE/DX =    0.0                 !
 --------------------------------------------------------------------------------
 GradGradGradGradGradGradGradGradGradGradGradGradGradGradGradGradGradGrad


 ----------------------------------------------------------------------

 Electric dipole moment (input orientation):
 (Debye = 10**-18 statcoulomb cm , SI units = C m)
                  (au)            (Debye)         (10**-30 SI)
   Tot        0.538749D+01      0.136936D+02      0.456771D+02
   x         -0.521905D+01     -0.132655D+02     -0.442490D+02
   y         -0.133663D+01     -0.339738D+01     -0.113324D+02
   z         -0.130969D-03     -0.332891D-03     -0.111041D-02

 Dipole polarizability, Alpha (input orientation).
 (esu units = cm**3 , SI units = C**2 m**2 J**-1)
 Alpha(0;0):
               (au)            (10**-24 esu)      (10**-40 SI)
   iso        0.458495D+02      0.679420D+01      0.755957D+01
   aniso      0.147752D+02      0.218946D+01      0.243610D+01
   xx         0.548222D+02      0.812382D+01      0.903897D+01
   yx         0.341148D+01      0.505530D+00      0.562478D+00
   yy         0.422284D+02      0.625760D+01      0.696252D+01
   zx         0.692729D-03      0.102652D-03      0.114216D-03
   zy         0.339709D-03      0.503396D-04      0.560104D-04
   zz         0.404980D+02      0.600118D+01      0.667722D+01

 ----------------------------------------------------------------------

 Dipole orientation:
     6         -0.49627519          1.93918074          3.24417804
     1         -0.54412538          2.12706932          5.29096888
     1          0.92296222          3.19377317          2.44256144
     1         -2.34388953          2.35770462          2.44293551
    17          0.12410946         -0.48508864         -3.23463840
     7          0.17915626         -0.70026437          2.57281534
     1          1.91305014         -1.17705096          3.27936799
     1         -1.11228850         -1.95135955          3.27982476
     1          0.22373422         -0.87559011          0.59351587

 Electric dipole moment (dipole orientation):
 (Debye = 10**-18 statcoulomb cm , SI units = C m)
                  (au)            (Debye)         (10**-30 SI)
   Tot        0.538749D+01      0.136936D+02      0.456771D+02
   x          0.000000D+00      0.000000D+00      0.000000D+00
   y          0.000000D+00      0.000000D+00      0.000000D+00
   z          0.538749D+01      0.136936D+02      0.456771D+02

 Dipole polarizability, Alpha (dipole orientation).
 (esu units = cm**3 , SI units = C**2 m**2 J**-1)
 Alpha(0;0):
               (au)            (10**-24 esu)      (10**-40 SI)
   iso        0.458495D+02      0.679420D+01      0.755957D+01
   aniso      0.147752D+02      0.218946D+01      0.243610D+01
   xx         0.405512D+02      0.600907D+01      0.668599D+01
   yx        -0.207938D+00     -0.308132D-01     -0.342843D-01
   yy         0.413105D+02      0.612159D+01      0.681119D+01
   zx        -0.913815D-02     -0.135413D-02     -0.150668D-02
   zy         0.341248D-01      0.505678D-02      0.562642D-02
   zz         0.556869D+02      0.825195D+01      0.918153D+01

 ----------------------------------------------------------------------
 1\1\GINC-ANMOL\Freq\RM062X\6-31+G(d,p)\C1H6Cl1N1\ANMOL\22-Jul-2024\0\\
 #N Geom=AllCheck Guess=TCheck SCRF=Check GenChk RM062X/6-31+G(d,p) Fre
 q\\Title Card Required\\0,1\C,-1.9258673537,0.6002016079,0.0001433689\
 H,-3.0005734312,0.430873963,0.0002550649\H,-1.628289207,1.1479719736,0
 .8924139954\H,-1.6285143039,1.1482278833,-0.8920458471\Cl,1.7239180406
 ,0.1679882968,-0.0000223484\N,-1.224010606,-0.7083209499,-0.0001283476
 \H,-1.4691151098,-1.2583853149,0.8261160859\H,-1.4693738729,-1.2581872
 651,-0.8264279638\H,-0.1856071561,-0.5411991948,-0.000269008\\Version=
 ES64L-G16RevA.03\State=1-A\HF=-556.6345693\RMSD=9.935e-10\RMSF=1.152e-
 05\ZeroPoint=0.0798676\Thermal=0.0851292\Dipole=-5.2190518,-1.3366317,
 -0.000131\DipoleDeriv=0.2653607,-0.1859925,-0.0000362,-0.2658144,0.461
 419,0.0000664,-0.0000521,0.0000681,0.1277155,-0.0515097,0.0109383,0.00
 00241,-0.0376292,0.0539303,-0.0000024,0.000015,-0.0000119,0.13522,0.09
 24968,-0.0039632,-0.0709544,0.0388146,0.0501277,-0.0232261,-0.0430173,
 -0.0727677,0.0071435,0.0925254,-0.0039668,0.0709333,0.0388094,0.050101
 5,0.0232317,0.0430073,0.0727824,0.0071417,-1.3038688,-0.0976274,-0.000
 023,-0.1634301,-0.9427227,-0.0000089,-0.0000705,-0.0000183,-0.9047055,
 -1.0701276,-0.0692012,-0.0000057,-0.0570209,-0.5754995,-0.00005,0.0000
 668,-0.0000344,-0.3367795,0.297126,0.0357452,-0.0152131,0.0394375,0.30
 7396,-0.0286834,-0.0084057,-0.0466974,0.3548233,0.2971139,0.035747,0.0
 152315,0.0394345,0.3073747,0.0286599,0.0084287,0.0466696,0.3548388,1.3
 808833,0.2783206,0.0000436,0.3673987,0.2878731,0.0000126,0.0000279,0.0
 000096,0.2546022\Polar=54.8222452,3.4114831,42.2283908,0.0006927,0.000
 3397,40.4979859\Quadrupole=-3.3389195,2.5986124,0.7403072,1.7834988,0.
 0004739,0.0003199\PG=C01 [X(C1H6Cl1N1)]\NImag=0\\0.60602549,0.06555014
 ,0.50824755,0.00001433,-0.00002676,0.63869546,-0.33176006,-0.04679682,
 0.00002845,0.35459058,-0.06032196,-0.05965223,0.00000700,0.04724000,0.
 06563227,0.00002651,0.00000542,-0.05128411,-0.00003191,-0.00000360,0.0
 4605367,-0.07529553,-0.04435712,-0.07302023,-0.00463742,-0.01472587,-0
 .02585565,0.07392443,-0.03760903,-0.11696906,-0.10961618,-0.00124046,-
 0.00129488,-0.00286052,0.03762830,0.13324138,-0.06692767,-0.12040240,-
 0.25009930,0.00093772,0.00240309,0.00247367,0.07279933,0.12734651,0.25
 938464,-0.07526068,-0.04434772,0.07296277,-0.00463109,-0.01473386,0.02
 585323,0.00257450,0.00542527,-0.00796997,0.07388780,-0.03760096,-0.117
 03484,0.10966296,-0.00123948,-0.00129497,0.00285983,0.00541979,0.01076
 408,-0.01300887,0.03761721,0.13331333,0.06687227,0.12045031,-0.2500668
 7,-0.00093629,-0.00240043,0.00246754,0.00796662,0.01301538,-0.01702306
 ,-0.07274105,-0.12739104,0.25934675,0.00159506,-0.00464630,-0.00000057
 ,-0.00058290,0.00101288,0.00000018,0.00006551,0.00039321,0.00014567,0.
 00006601,0.00039335,-0.00014571,0.01876201,-0.00068507,-0.00140613,-0.
 00000029,-0.00020587,0.00071432,0.00000019,0.00004180,0.00012386,0.000
 12301,0.00004154,0.00012387,-0.00012289,0.00507359,0.00297018,-0.00000
 003,-0.00000051,-0.00003797,-0.00000005,0.00000022,-0.00003922,-0.0000
 0639,0.00002078,-0.00005099,0.00000661,-0.00002067,-0.00005107,-0.0000
 0052,0.00000012,0.00110673,-0.12103809,0.04476555,0.00000894,-0.015466
 50,0.04309400,0.00000824,0.00401210,-0.00558946,0.00122550,0.00400683,
 -0.00558133,-0.00122713,-0.03206002,-0.01130834,-0.00000309,0.61108975
 ,0.05177833,-0.18572071,-0.00001964,0.00062065,-0.00087051,-0.00000046
 ,0.01417855,-0.02373398,0.00278787,0.01418306,-0.02374059,-0.00279920,
 -0.00994854,-0.00087856,-0.00000128,0.06985187,0.61317533,0.00001046,-
 0.00001755,-0.09704963,0.00000220,-0.00000596,0.00000381,0.01806396,-0
 .02914980,0.00386351,-0.01806049,0.02914303,0.00387582,-0.00000126,-0.
 00000088,0.00398291,0.00003040,-0.00002485,0.74829451,0.00491031,0.010
 20178,-0.01723875,0.00024509,-0.00040549,-0.00046587,0.00036388,-0.000
 81332,0.00030779,-0.00162159,0.00359579,0.00042889,-0.00157459,-0.0002
 4358,-0.00081001,-0.07697803,-0.05086788,0.07651749,0.07457135,-0.0072
 7427,-0.01699990,0.02415657,-0.00045682,0.00158392,-0.00008692,-0.0009
 5030,0.00109998,-0.00007273,0.00317215,-0.00387355,-0.00118522,0.00049
 293,0.00023952,-0.00005716,-0.04854348,-0.15784525,0.15819854,0.048388
 38,0.16613708,-0.00279691,-0.00103248,0.00497423,0.00008561,-0.0003123
 4,-0.00017142,0.00009325,-0.00045603,0.00034461,0.00060057,-0.00176601
 ,0.00124495,-0.00106595,-0.00025571,-0.00011147,0.07191346,0.15590063,
 -0.29970494,-0.07931920,-0.16657837,0.31132079,0.00491640,0.01019816,0
 .01724157,0.00024533,-0.00040561,0.00046561,-0.00162199,0.00359665,-0.
 00042717,0.00036364,-0.00081308,-0.00030803,-0.00157580,-0.00024433,0.
 00080960,-0.07702945,-0.05090211,-0.07659760,0.00140773,0.00670436,0.0
 0860045,0.07462690,-0.00728254,-0.01699360,-0.02415953,-0.00045683,0.0
 0158407,0.00008749,0.00317245,-0.00387430,0.00118302,-0.00095023,0.001
 09971,0.00007327,0.00049249,0.00023941,0.00005718,-0.04857938,-0.15777
 952,-0.15814970,0.00671188,0.01297288,0.01671784,0.04842546,0.16606611
 ,0.00279505,0.00102380,0.00496224,-0.00008580,0.00031298,-0.00017137,-
 0.00059885,0.00176353,0.00124603,-0.00009346,0.00045644,0.00034475,0.0
 0106663,0.00025585,-0.00011137,-0.07199273,-0.15585073,-0.29974501,-0.
 00860568,-0.01671187,-0.02034049,0.07940302,0.16652868,0.31136215,-0.0
 1409290,0.00943232,0.00000348,0.00199698,-0.00075410,-0.00000034,0.000
 61452,-0.00179117,-0.00009121,0.00061458,-0.00179129,0.00009043,0.0153
 0473,0.00753026,0.00000387,-0.29653659,-0.03889393,0.00003484,-0.00132
 414,-0.00153295,0.00188871,-0.00133275,-0.00153330,-0.00188817,0.29475
 558,0.03344537,0.00652892,-0.00000413,0.00253561,-0.00640199,-0.000001
 42,-0.00040760,0.00064292,-0.00035949,-0.00040743,0.00064297,0.0003598
 3,0.00673639,-0.00212647,0.00000133,-0.03810943,-0.06260620,0.00000718
 ,-0.01656755,-0.00331469,-0.00221754,-0.01655950,-0.00331475,0.0022213
 3,0.02933415,0.06994927,0.00000599,0.00000017,-0.00009406,0.00000008,-
 0.00000095,0.00066743,0.00055795,-0.00006367,-0.00013912,-0.00055821,0
 .00006432,-0.00013882,0.00000153,0.00000062,-0.00468756,0.00003640,0.0
 0000767,-0.06352098,0.02918533,0.00233717,0.00244374,-0.02918745,-0.00
 233825,0.00245308,-0.00004162,-0.00000709,0.06301628\\0.00000928,0.000
 01187,-0.00000007,0.00001189,0.00001717,-0.00000006,0.00001535,0.00000
 682,0.00000131,0.00001541,0.00000729,-0.00000147,-0.00000494,-0.000034
 16,0.00000094,-0.00000903,-0.00002065,0.00000345,-0.00001647,0.0000044
 8,-0.00000361,-0.00001520,0.00000403,0.00000353,-0.00000629,0.00000314
 ,-0.00000403\\\@


 I LOVE MANKIND - IT'S PEOPLE I CAN'T STAND.
     -- LINUS OF PEANUTS
 Job cpu time:       0 days  0 hours  3 minutes  9.6 seconds.
 Elapsed time:       0 days  0 hours  0 minutes 19.0 seconds.
 File lengths (MBytes):  RWF=     28 Int=      0 D2E=      0 Chk=      5 Scr=      1
 Normal termination of Gaussian 16 at Mon Jul 22 11:58:05 2024.
