 Entering Gaussian System, Link 0=g16
 Input=rct_spe.gjf
 Output=rct_spe.log
 Initial command:
 /home/anmol/Softwares//g16/l1.exe "/home/anmol/scrh/Gau-432608.inp" -scrdir="/home/anmol/scrh/"
 Entering Link 1 = /home/anmol/Softwares//g16/l1.exe PID=    432610.
  
 Copyright (c) 1988,1990,1992,1993,1995,1998,2003,2009,2016,
            Gaussian, Inc.  All Rights Reserved.
  
 This is part of the Gaussian(R) 16 program.  It is based on
 the Gaussian(R) 09 system (copyright 2009, Gaussian, Inc.),
 the Gaussian(R) 03 system (copyright 2003, Gaussian, Inc.),
 the Gaussian(R) 98 system (copyright 1998, Gaussian, Inc.),
 the Gaussian(R) 94 system (copyright 1995, Gaussian, Inc.),
 the Gaussian 92(TM) system (copyright 1992, Gaussian, Inc.),
 the Gaussian 90(TM) system (copyright 1990, Gaussian, Inc.),
 the Gaussian 88(TM) system (copyright 1988, Gaussian, Inc.),
 the Gaussian 86(TM) system (copyright 1986, Carnegie Mellon
 University), and the Gaussian 82(TM) system (copyright 1983,
 Carnegie Mellon University). Gaussian is a federally registered
 trademark of Gaussian, Inc.
  
 This software contains proprietary and confidential information,
 including trade secrets, belonging to Gaussian, Inc.
  
 This software is provided under written license and may be
 used, copied, transmitted, or stored only in accord with that
 written license.
  
 The following legend is applicable only to US Government
 contracts under FAR:
  
                    RESTRICTED RIGHTS LEGEND
  
 Use, reproduction and disclosure by the US Government is
 subject to restrictions as set forth in subparagraphs (a)
 and (c) of the Commercial Computer Software - Restricted
 Rights clause in FAR 52.227-19.
  
 Gaussian, Inc.
 340 Quinnipiac St., Bldg. 40, Wallingford CT 06492
  
  
 ---------------------------------------------------------------
 Warning -- This program may not be used in any manner that
 competes with the business of Gaussian, Inc. or will provide
 assistance to any competitor of Gaussian, Inc.  The licensee
 of this program is prohibited from giving any competitor of
 Gaussian, Inc. access to this program.  By using this program,
 the user acknowledges that Gaussian, Inc. is engaged in the
 business of creating and licensing software in the field of
 computational chemistry and represents and warrants to the
 licensee that it is not a competitor of Gaussian, Inc. and that
 it will not use this program in any manner prohibited above.
 ---------------------------------------------------------------
  

 Cite this work as:
 Gaussian 16, Revision A.03,
 M. J. Frisch, G. W. Trucks, H. B. Schlegel, G. E. Scuseria, 
 M. A. Robb, J. R. Cheeseman, G. Scalmani, V. Barone, 
 G. A. Petersson, H. Nakatsuji, X. Li, M. Caricato, A. V. Marenich, 
 J. Bloino, B. G. Janesko, R. Gomperts, B. Mennucci, H. P. Hratchian, 
 J. V. Ortiz, A. F. Izmaylov, J. L. Sonnenberg, D. Williams-Young, 
 F. Ding, F. Lipparini, F. Egidi, J. Goings, B. Peng, A. Petrone, 
 T. Henderson, D. Ranasinghe, V. G. Zakrzewski, J. Gao, N. Rega, 
 G. Zheng, W. Liang, M. Hada, M. Ehara, K. Toyota, R. Fukuda, 
 J. Hasegawa, M. Ishida, T. Nakajima, Y. Honda, O. Kitao, H. Nakai, 
 T. Vreven, K. Throssell, J. A. Montgomery, Jr., J. E. Peralta, 
 F. Ogliaro, M. J. Bearpark, J. J. Heyd, E. N. Brothers, K. N. Kudin, 
 V. N. Staroverov, T. A. Keith, R. Kobayashi, J. Normand, 
 K. Raghavachari, A. P. Rendell, J. C. Burant, S. S. Iyengar, 
 J. Tomasi, M. Cossi, J. M. Millam, M. Klene, C. Adamo, R. Cammi, 
 J. W. Ochterski, R. L. Martin, K. Morokuma, O. Farkas, 
 J. B. Foresman, and D. J. Fox, Gaussian, Inc., Wallingford CT, 2016.
 
 ******************************************
 Gaussian 16:  ES64L-G16RevA.03 25-Dec-2016
                22-Jul-2024 
 ******************************************
 %nprocshared=10
 Will use up to   10 processors via shared memory.
 %mem=10GB
 --------------------------------------------------
 # freq 6-311+g(d,p) scrf=(smd,solvent=water) m062x
 --------------------------------------------------
 1/10=4,30=1,38=1/1,3;
 2/12=2,17=6,18=5,40=1/2;
 3/5=4,6=6,7=111,11=2,25=1,30=1,70=32201,71=2,72=1,74=-55,140=1/1,2,3;
 4//1;
 5/5=2,38=5,53=1,98=1/2;
 8/6=4,10=90,11=11/1;
 11/6=1,8=1,9=11,15=111,16=1/1,2,10;
 10/6=1/2;
 6/7=2,8=2,9=2,10=2,28=1/1;
 7/8=1,10=1,25=1/1,2,3,16;
 1/10=4,30=1/3;
 99//99;
 -------------------
 Title Card Required
 -------------------
 Symbolic Z-matrix:
 Charge =  0 Multiplicity = 1
 C                    -1.13815   0.00003  -0.00001 
 Cl                    0.66182  0.         0. 
 H                    -1.47404  -0.38956   0.95875 
 H                    -1.47401  -0.6357   -0.81665 
 H                    -1.47392   1.02517  -0.14208 
 

 GradGradGradGradGradGradGradGradGradGradGradGradGradGradGradGradGradGrad
 Berny optimization.
 Initialization pass.
 Trust Radius=3.00D-01 FncErr=1.00D-07 GrdErr=1.00D-07 EigMax=2.50D+02 EigMin=1.00D-04
 Number of steps in this run=      2 maximum allowed number of steps=      2.
 GradGradGradGradGradGradGradGradGradGradGradGradGradGradGradGradGradGrad

                          Input orientation:                          
 ---------------------------------------------------------------------
 Center     Atomic      Atomic             Coordinates (Angstroms)
 Number     Number       Type             X           Y           Z
 ---------------------------------------------------------------------
      1          6           0       -1.138154    0.000027   -0.000006
      2         17           0        0.661817   -0.000004    0.000002
      3          1           0       -1.474040   -0.389555    0.958745
      4          1           0       -1.474008   -0.635697   -0.816651
      5          1           0       -1.473917    1.025165   -0.142084
 ---------------------------------------------------------------------
                    Distance matrix (angstroms):
                    1          2          3          4          5
     1  C    0.000000
     2  Cl   1.799971   0.000000
     3  H    1.088024   2.373357   0.000000
     4  H    1.088050   2.373347   1.792377   0.000000
     5  H    1.088040   2.373293   1.792556   1.792625   0.000000
 Stoichiometry    CH3Cl
 Framework group  C1[X(CH3Cl)]
 Deg. of freedom     9
 Full point group                 C1      NOp   1
 Largest Abelian subgroup         C1      NOp   1
 Largest concise Abelian subgroup C1      NOp   1
                         Standard orientation:                         
 ---------------------------------------------------------------------
 Center     Atomic      Atomic             Coordinates (Angstroms)
 Number     Number       Type             X           Y           Z
 ---------------------------------------------------------------------
      1          6           0       -1.138154    0.000027   -0.000006
      2         17           0        0.661817   -0.000004    0.000002
      3          1           0       -1.474040   -0.391120    0.958108
      4          1           0       -1.474008   -0.634363   -0.817688
      5          1           0       -1.473917    1.025396   -0.140410
 ---------------------------------------------------------------------
 Rotational constants (GHZ):         156.0645748          13.1120347          13.1118536
 Standard basis: 6-311+G(d,p) (5D, 7F)
 There are    72 symmetry adapted cartesian basis functions of A   symmetry.
 There are    70 symmetry adapted basis functions of A   symmetry.
    70 basis functions,   113 primitive gaussians,    72 cartesian basis functions
    13 alpha electrons       13 beta electrons
       nuclear repulsion energy        50.9986679762 Hartrees.
 NAtoms=    5 NActive=    5 NUniq=    5 SFac= 1.00D+00 NAtFMM=   60 NAOKFM=F Big=F
 Integral buffers will be    131072 words long.
 Raffenetti 2 integral format.
 Two-electron integral symmetry is turned on.
 Force inversion solution in PCM.
 ------------------------------------------------------------------------------
 Polarizable Continuum Model (PCM)
 =================================
 Model                : PCM.
 Atomic radii         : SMD-Coulomb.
 Polarization charges : Total charges.
 Charge compensation  : None.
 Solution method      : Matrix inversion.
 Cavity type          : VdW (van der Waals Surface) (Alpha=1.000).
 Cavity algorithm     : GePol (No added spheres)
                        Default sphere list used, NSphG=    5.
                        Lebedev-Laikov grids with approx.  5.0 points / Ang**2.
                        Smoothing algorithm: York/Karplus (Gamma=1.0000).
                        Polarization charges: spherical gaussians, with
                                              point-specific exponents (IZeta= 3).
                        Self-potential: point-specific (ISelfS= 7).
                        Self-field    : sphere-specific E.n sum rule (ISelfD= 2).
 1st derivatives      : Analytical E(r).r(x)/FMM algorithm (CHGder, D1EAlg=3).
                        Cavity 1st derivative terms included.
 2nd derivatives      : Analytical E(r).r(xy)/FMM algorithm (CHGder, D2EAlg=3).
                        Cavity 2nd derivative terms included.
 Solvent              : Water, Eps=  78.355300 Eps(inf)=   1.777849
 ------------------------------------------------------------------------------
 Spheres list:
 ISph  on   Nord     Re0    Alpha      Xe            Ye            Ze
    1   C      1    1.8500  1.000     -1.138154      0.000027     -0.000006
    2  Cl      2    2.3800  1.000      0.661817     -0.000004      0.000002
    3   H      3    1.2000  1.000     -1.474040     -0.391120      0.958108
    4   H      4    1.2000  1.000     -1.474008     -0.634363     -0.817688
    5   H      5    1.2000  1.000     -1.473917      1.025396     -0.140410
 ------------------------------------------------------------------------------
 ------------------------------------------------------------------------------
 Atomic radii for non-electrostatic terms: SMD-CDS.
 ------------------------------------------------------------------------------
 Nuclear repulsion after PCM non-electrostatic terms =       51.0023557748 Hartrees.
 One-electron integrals computed using PRISM.
 NBasis=    70 RedAO= T EigKep=  1.46D-03  NBF=    70
 NBsUse=    70 1.00D-06 EigRej= -1.00D+00 NBFU=    70
 ExpMin= 4.38D-02 ExpMax= 1.06D+05 ExpMxC= 3.62D+03 IAcc=3 IRadAn=         5 AccDes= 0.00D+00
 Harris functional with IExCor= 1009 and IRadAn=       5 diagonalized for initial guess.
 HarFok:  IExCor= 1009 AccDes= 0.00D+00 IRadAn=         5 IDoV= 1 UseB2=F ITyADJ=14
 ICtDFT=  3500011 ScaDFX=  1.000000  1.000000  1.000000  1.000000
 FoFCou: FMM=F IPFlag=           0 FMFlag=      100000 FMFlg1=           0
         NFxFlg=           0 DoJE=T BraDBF=F KetDBF=T FulRan=T
         wScrn=  0.000000 ICntrl=       500 IOpCl=  0 I1Cent=   200000004 NGrid=           0
         NMat0=    1 NMatS0=      1 NMatT0=    0 NMatD0=    1 NMtDS0=    0 NMtDT0=    0
 Petite list used in FoFCou.
 Keep R1 ints in memory in canonical form, NReq=12059237.
 Requested convergence on RMS density matrix=1.00D-08 within 128 cycles.
 Requested convergence on MAX density matrix=1.00D-06.
 Requested convergence on             energy=1.00D-06.
 No special actions if energy rises.
 Inv3:  Mode=1 IEnd=     1168128.
 Iteration    1 A*A^-1 deviation from unit magnitude is 2.89D-15 for    366.
 Iteration    1 A*A^-1 deviation from orthogonality  is 1.96D-15 for    200    117.
 Iteration    1 A^-1*A deviation from unit magnitude is 2.44D-15 for    381.
 Iteration    1 A^-1*A deviation from orthogonality  is 1.61D-15 for    567     70.
 Error on total polarization charges =  0.01543
 SCF Done:  E(RM062X) =  -500.093394243     A.U. after   10 cycles
            NFock= 10  Conv=0.45D-08     -V/T= 2.0024
 SMD-CDS (non-electrostatic) energy       (kcal/mol) =       2.31
 (included in total energy above)
 DoSCS=F DFT=T ScalE2(SS,OS)=  1.000000  1.000000
 Range of M.O.s used for correlation:     1    70
 NBasis=    70 NAE=    13 NBE=    13 NFC=     0 NFV=     0
 NROrb=     70 NOA=    13 NOB=    13 NVA=    57 NVB=    57

 **** Warning!!: The largest alpha MO coefficient is  0.13579633D+02

 Symmetrizing basis deriv contribution to polar:
 IMax=3 JMax=2 DiffMx= 0.00D+00
 G2DrvN: will do     6 centers at a time, making    1 passes.
 Calling FoFCou, ICntrl=  3107 FMM=F I1Cent=   0 AccDes= 0.00D+00.
 NEqPCM:  Using equilibrium solvation (IEInf=0, Eps=  78.3553, EpsInf=   1.7778)
 G2PCM: DoFxE=T DoFxN=T DoGrad=T DoDP/DQ/DG/TGxP=FFFF NFrqRd=   0 IEInf=0 SqF1=F DoCFld=F IF1Alg=4.
 End of G2Drv F.D. properties file   721 does not exist.
 End of G2Drv F.D. properties file   722 does not exist.
 End of G2Drv F.D. properties file   788 does not exist.
          IDoAtm=11111
 NEqPCM:  Using equilibrium solvation (IEInf=0, Eps=  78.3553, EpsInf=   1.7778)
          Differentiating once with respect to electric field.
                with respect to dipole field.
          Differentiating once with respect to nuclear coordinates.
 Keep R1 ints in memory in canonical form, NReq=12028871.
          There are    18 degrees of freedom in the 1st order CPHF.  IDoFFX=6 NUNeed=     3.
     15 vectors produced by pass  0 Test12= 4.12D-15 5.56D-09 XBig12= 1.37D+01 2.23D+00.
 AX will form    15 AO Fock derivatives at one time.
     15 vectors produced by pass  1 Test12= 4.12D-15 5.56D-09 XBig12= 1.05D+00 2.30D-01.
     15 vectors produced by pass  2 Test12= 4.12D-15 5.56D-09 XBig12= 1.67D-02 3.59D-02.
     15 vectors produced by pass  3 Test12= 4.12D-15 5.56D-09 XBig12= 7.25D-05 2.31D-03.
     15 vectors produced by pass  4 Test12= 4.12D-15 5.56D-09 XBig12= 4.69D-07 1.87D-04.
     15 vectors produced by pass  5 Test12= 4.12D-15 5.56D-09 XBig12= 2.85D-09 1.62D-05.
      7 vectors produced by pass  6 Test12= 4.12D-15 5.56D-09 XBig12= 1.14D-11 8.38D-07.
      3 vectors produced by pass  7 Test12= 4.12D-15 5.56D-09 XBig12= 3.07D-14 3.88D-08.
 InvSVY:  IOpt=1 It=  1 EMax= 1.78D-15
 Solved reduced A of dimension   100 with    15 vectors.
 Isotropic polarizability for W=    0.000000       28.92 Bohr**3.
 End of Minotr F.D. properties file   721 does not exist.
 End of Minotr F.D. properties file   722 does not exist.
 End of Minotr F.D. properties file   788 does not exist.

 **********************************************************************

            Population analysis using the SCF density.

 **********************************************************************

 Orbital symmetries:
       Occupied  (A) (A) (A) (A) (A) (A) (A) (A) (A) (A) (A) (A)
                 (A)
       Virtual   (A) (A) (A) (A) (A) (A) (A) (A) (A) (A) (A) (A)
                 (A) (A) (A) (A) (A) (A) (A) (A) (A) (A) (A) (A)
                 (A) (A) (A) (A) (A) (A) (A) (A) (A) (A) (A) (A)
                 (A) (A) (A) (A) (A) (A) (A) (A) (A) (A) (A) (A)
                 (A) (A) (A) (A) (A) (A) (A) (A) (A)
 The electronic state is 1-A.
 Alpha  occ. eigenvalues -- -102.66201 -10.58219  -9.80425  -7.52920  -7.52281
 Alpha  occ. eigenvalues --   -7.52281  -0.94635  -0.75714  -0.50698  -0.50693
 Alpha  occ. eigenvalues --   -0.46602  -0.36167  -0.36166
 Alpha virt. eigenvalues --    0.02436   0.03094   0.06145   0.06146   0.08997
 Alpha virt. eigenvalues --    0.10180   0.10181   0.11546   0.18885   0.18991
 Alpha virt. eigenvalues --    0.18993   0.24149   0.43003   0.43005   0.43479
 Alpha virt. eigenvalues --    0.49657   0.49658   0.53148   0.63950   0.63953
 Alpha virt. eigenvalues --    0.68187   0.87782   0.87783   0.88410   0.94153
 Alpha virt. eigenvalues --    0.95264   0.95266   1.19834   1.20289   1.20294
 Alpha virt. eigenvalues --    1.48952   1.57113   1.57121   1.73279   1.75421
 Alpha virt. eigenvalues --    1.75424   1.98733   2.15839   2.15847   2.36005
 Alpha virt. eigenvalues --    2.36009   2.40658   2.46258   2.51827   2.51838
 Alpha virt. eigenvalues --    2.56987   2.56993   2.85851   3.25201   3.76965
 Alpha virt. eigenvalues --    3.76985   9.89578  23.94589  25.94792  25.94793
 Alpha virt. eigenvalues --   26.38651 215.98380
          Condensed to atoms (all electrons):
               1          2          3          4          5
     1  C    5.391425   0.107489   0.384965   0.384957   0.384969
     2  Cl   0.107489  17.049193  -0.044145  -0.044149  -0.044157
     3  H    0.384965  -0.044145   0.480040  -0.023508  -0.023487
     4  H    0.384957  -0.044149  -0.023508   0.480205  -0.023478
     5  H    0.384969  -0.044157  -0.023487  -0.023478   0.480224
 Mulliken charges:
               1
     1  C   -0.653805
     2  Cl  -0.024231
     3  H    0.226136
     4  H    0.225972
     5  H    0.225928
 Sum of Mulliken charges =  -0.00000
 Mulliken charges with hydrogens summed into heavy atoms:
               1
     1  C    0.024231
     2  Cl  -0.024231
 APT charges:
               1
     1  C    0.354211
     2  Cl  -0.423591
     3  H    0.022501
     4  H    0.023482
     5  H    0.023396
 Sum of APT charges =  -0.00000
 APT charges with hydrogens summed into heavy atoms:
               1
     1  C    0.423591
     2  Cl  -0.423591
 Electronic spatial extent (au):  <R**2>=            132.4302
 Charge=             -0.0000 electrons
 Dipole moment (field-independent basis, Debye):
    X=             -2.7358    Y=             -0.0003    Z=              0.0005  Tot=              2.7358
 Quadrupole moment (field-independent basis, Debye-Ang):
   XX=            -18.0779   YY=            -20.1039   ZZ=            -20.1041
   XY=              0.0005   XZ=             -0.0006   YZ=             -0.0002
 Traceless Quadrupole moment (field-independent basis, Debye-Ang):
   XX=              1.3507   YY=             -0.6752   ZZ=             -0.6755
   XY=              0.0005   XZ=             -0.0006   YZ=             -0.0002
 Octapole moment (field-independent basis, Debye-Ang**2):
  XXX=             -0.5171  YYY=              0.9293  ZZZ=              0.4034  XYY=             -1.6730
  XXY=             -0.0011  XXZ=              0.0011  XZZ=             -1.6727  YZZ=             -0.9303
  YYZ=             -0.4020  XYZ=              0.0003
 Hexadecapole moment (field-independent basis, Debye-Ang**3):
 XXXX=           -117.1817 YYYY=            -29.5112 ZZZZ=            -29.5092 XXXY=              0.0020
 XXXZ=             -0.0019 YYYX=             -1.3560 YYYZ=             -0.0001 ZZZX=             -0.5882
 ZZZY=             -0.0005 XXYY=            -24.4222 XXZZ=            -24.4221 YYZZ=             -9.8366
 XXYZ=             -0.0005 YYXZ=              0.5866 ZZXY=              1.3571
 N-N= 5.100235577480D+01 E-N=-1.288586922824D+03  KE= 4.989163724567D+02
  Exact polarizability:  37.623  -0.011  24.576   0.006   0.001  24.561
 Approx polarizability:  33.004   0.001  21.488  -0.000   0.000  21.486
 D2PCM: PCM CHGder 2nd derivatives, FixD1E=F FixD2E=F DoIter=F DoCFld=F I1PDM=0
 Calling FoFJK, ICntrl=    100127 FMM=F ISym2X=0 I1Cent= 0 IOpClX= 0 NMat=1 NMatS=1 NMatT=0.
 Full mass-weighted force constant matrix:
 Low frequencies ---    0.0039    0.0051    0.0053   40.8569   44.3399  151.7180
 Low frequencies ---  725.3372 1056.6424 1057.7813
 Diagonal vibrational polarizability:
        3.3493668       0.2861023       0.2918442
 Harmonic frequencies (cm**-1), IR intensities (KM/Mole), Raman scattering
 activities (A**4/AMU), depolarization ratios for plane and unpolarized
 incident light, reduced masses (AMU), force constants (mDyne/A),
 and normal coordinates:
                      1                      2                      3
                      A                      A                      A
 Frequencies --    725.3357              1056.6222              1057.7558
 Red. masses --      7.3365                 1.1704                 1.1712
 Frc consts  --      2.2741                 0.7699                 0.7721
 IR Inten    --     60.4163                 4.2137                 4.3129
  Atom  AN      X      Y      Z        X      Y      Z        X      Y      Z
     1   6     0.62  -0.00   0.00    -0.00   0.09   0.08     0.00   0.08  -0.09
     2  17    -0.25   0.00  -0.00    -0.00  -0.02  -0.01    -0.00  -0.01   0.02
     3   1     0.42   0.02  -0.06    -0.25  -0.24  -0.14     0.70  -0.13   0.07
     4   1     0.43   0.04   0.05     0.74  -0.11  -0.06    -0.13  -0.21   0.19
     5   1     0.43  -0.06   0.01    -0.48  -0.11  -0.21    -0.57  -0.07   0.20
                      4                      5                      6
                      A                      A                      A
 Frequencies --   1403.9434              1471.3454              1472.6526
 Red. masses --      1.1282                 1.0513                 1.0508
 Frc consts  --      1.3101                 1.3409                 1.3426
 IR Inten    --     15.1005                14.6494                14.8495
  Atom  AN      X      Y      Z        X      Y      Z        X      Y      Z
     1   6    -0.10  -0.00  -0.00     0.00  -0.03  -0.05     0.00  -0.05   0.03
     2  17    -0.01   0.00   0.00    -0.00  -0.00  -0.00     0.00  -0.00   0.00
     3   1     0.55  -0.07   0.18    -0.21   0.56   0.13     0.26   0.38   0.28
     4   1     0.54  -0.12  -0.15     0.33  -0.18  -0.04     0.05   0.55  -0.46
     5   1     0.54   0.19  -0.02    -0.12   0.04   0.68    -0.32  -0.17  -0.24
                      7                      8                      9
                      A                      A                      A
 Frequencies --   3095.0441              3201.7807              3203.1427
 Red. masses --      1.0270                 1.1106                 1.1106
 Frc consts  --      5.7966                 6.7079                 6.7135
 IR Inten    --     18.8014                 1.1473                 1.2486
  Atom  AN      X      Y      Z        X      Y      Z        X      Y      Z
     1   6     0.04  -0.00   0.00     0.00  -0.08  -0.06     0.00   0.06  -0.08
     2  17    -0.00   0.00  -0.00    -0.00   0.00   0.00     0.00  -0.00   0.00
     3   1    -0.16  -0.21   0.51    -0.06  -0.09   0.18    -0.23  -0.28   0.70
     4   1    -0.17  -0.34  -0.44     0.23   0.45   0.59     0.06   0.13   0.15
     5   1    -0.16   0.55  -0.08    -0.17   0.55  -0.09     0.17  -0.54   0.06

 -------------------
 - Thermochemistry -
 -------------------
 Temperature   298.150 Kelvin.  Pressure   1.00000 Atm.
 Atom     1 has atomic number  6 and mass  12.00000
 Atom     2 has atomic number 17 and mass  34.96885
 Atom     3 has atomic number  1 and mass   1.00783
 Atom     4 has atomic number  1 and mass   1.00783
 Atom     5 has atomic number  1 and mass   1.00783
 Molecular mass:    49.99233 amu.
 Principal axes and moments of inertia in atomic units:
                           1         2         3
     Eigenvalues --    11.56407 137.64006 137.64196
           X            1.00000   0.00001  -0.00000
           Y           -0.00001   1.00000   0.00000
           Z            0.00000  -0.00000   1.00000
 This molecule is an asymmetric top.
 Rotational symmetry number  1.
 Rotational temperatures (Kelvin)      7.48992     0.62928     0.62927
 Rotational constants (GHZ):         156.06457    13.11203    13.11185
 Zero-point vibrational energy      99814.1 (Joules/Mol)
                                   23.85615 (Kcal/Mol)
 Vibrational temperatures:   1043.60  1520.24  1521.87  2019.96  2116.94
          (Kelvin)           2118.82  4453.08  4606.65  4608.61
 
 Zero-point correction=                           0.038017 (Hartree/Particle)
 Thermal correction to Energy=                    0.041030
 Thermal correction to Enthalpy=                  0.041974
 Thermal correction to Gibbs Free Energy=         0.014349
 Sum of electronic and zero-point Energies=           -500.055377
 Sum of electronic and thermal Energies=              -500.052364
 Sum of electronic and thermal Enthalpies=            -500.051420
 Sum of electronic and thermal Free Energies=         -500.079046
 
                     E (Thermal)             CV                S
                      KCal/Mol        Cal/Mol-Kelvin    Cal/Mol-Kelvin
 Total                   25.747              7.650             58.143
 Electronic               0.000              0.000              0.000
 Translational            0.889              2.981             37.651
 Rotational               0.889              2.981             20.021
 Vibrational             23.969              1.689              0.470
                       Q            Log10(Q)             Ln(Q)
 Total Bot       0.251247D-06         -6.599898        -15.196827
 Total V=0       0.770522D+11         10.886785         25.067749
 Vib (Bot)       0.341306D-17        -17.466856        -40.218922
 Vib (V=0)       0.104671D+01          0.019827          0.045654
 Electronic      0.100000D+01          0.000000          0.000000
 Translational   0.138934D+08          7.142809         16.446925
 Rotational      0.529845D+04          3.724149          8.575169
 ***** Axes restored to original set *****
 -------------------------------------------------------------------
 Center     Atomic                   Forces (Hartrees/Bohr)
 Number     Number              X              Y              Z
 -------------------------------------------------------------------
      1        6          -0.001283904   -0.000045062    0.000017686
      2       17          -0.000219187    0.000010630    0.000004556
      3        1           0.000527058    0.000562209   -0.001335368
      4        1           0.000506156    0.000929943    0.001120329
      5        1           0.000469878   -0.001457721    0.000192797
 -------------------------------------------------------------------
 Cartesian Forces:  Max     0.001457721 RMS     0.000767465

 GradGradGradGradGradGradGradGradGradGradGradGradGradGradGradGradGradGrad
 Berny optimization.
 Search for a local minimum.
 Step number   1 out of a maximum of    2
 All quantities printed in internal units (Hartrees-Bohrs-Radians)
 Second derivative matrix not updated -- analytic derivatives used.
 The second derivative matrix:
                          X1        Y1        Z1        X2        Y2
           X1           0.33901
           Y1          -0.00007   0.58264
           Z1          -0.00001  -0.00023   0.58195
           X2          -0.14358  -0.00006  -0.00008   0.21718
           Y2          -0.00002  -0.03335  -0.00001   0.00045   0.02185
           Z2           0.00001  -0.00004  -0.03319   0.00023   0.00009
           X3          -0.06528  -0.02997   0.07369  -0.02462  -0.00867
           Y3          -0.03077  -0.08881   0.09186   0.00161   0.00155
           Z3           0.07566   0.09186  -0.27733  -0.00410  -0.00209
           X4          -0.06497  -0.04871  -0.06264  -0.02449  -0.01413
           Y4          -0.05011  -0.15067  -0.12749   0.00269   0.00306
           Z4          -0.06441  -0.12749  -0.21513   0.00341   0.00295
           X5          -0.06519   0.07880  -0.01096  -0.02448   0.02238
           Y5           0.08097  -0.30981   0.03587  -0.00469   0.00690
           Z5          -0.01125   0.03590  -0.05630   0.00054  -0.00095
                          Z2        X3        Y3        Z3        X4
           Z2           0.02190
           X3           0.02111   0.07955
           Y3          -0.00208   0.03175   0.08582
           Z3           0.00581  -0.07785  -0.09886   0.28876
           X4          -0.01813   0.00517   0.00668   0.00637   0.07910
           Y4           0.00297   0.00471   0.00859   0.00946   0.05161
           Z4           0.00462  -0.00795  -0.01656  -0.01650   0.06631
           X5          -0.00321   0.00518  -0.00927  -0.00008   0.00518
           Y5          -0.00094   0.00218  -0.00716  -0.00037   0.00455
           Z5           0.00086  -0.00900   0.02564  -0.00075   0.00809
                          Y4        Z4        X5        Y5        Z5
           Y4           0.15232
           Z4           0.13716   0.22162
           X5          -0.00890   0.00263   0.07931
           Y5          -0.01330   0.00393  -0.08301   0.32337
           Z5          -0.02210   0.00539   0.01163  -0.03849   0.05080
 ITU=  0
     Eigenvalues ---    0.06638   0.06659   0.10575   0.10578   0.11278
     Eigenvalues ---    0.26118   0.54923   0.77318   0.77401
 Angle between quadratic step and forces=  23.25 degrees.
 Linear search not attempted -- first point.
 B after Tr=    -0.000730   -0.000099    0.000063
         Rot=    1.000000    0.000000    0.000009    0.000013 Ang=   0.00 deg.
 Variable       Old X    -DE/DX   Delta X   Delta X   Delta X     New X
                                 (Linear)    (Quad)   (Total)
    X1       -2.15080  -0.00128   0.00000  -0.00044  -0.00117  -2.15197
    Y1        0.00005  -0.00005   0.00000  -0.00007  -0.00012  -0.00007
    Z1       -0.00001   0.00002   0.00000   0.00003   0.00005   0.00004
    X2        1.25065  -0.00022   0.00000  -0.00097  -0.00170   1.24896
    Y2       -0.00001   0.00001   0.00000  -0.00005  -0.00018  -0.00019
    Z2        0.00000   0.00000   0.00000   0.00004   0.00012   0.00013
    X3       -2.78553   0.00053   0.00000   0.00200   0.00122  -2.78431
    Y3       -0.73615   0.00056   0.00000   0.00167   0.00164  -0.73451
    Z3        1.81177  -0.00134   0.00000  -0.00333  -0.00332   1.80844
    X4       -2.78547   0.00051   0.00000   0.00171   0.00098  -2.78449
    Y4       -1.20129   0.00093   0.00000   0.00272   0.00269  -1.19860
    Z4       -1.54325   0.00112   0.00000   0.00274   0.00275  -1.54050
    X5       -2.78530   0.00047   0.00000   0.00134   0.00066  -2.78464
    Y5        1.93728  -0.00146   0.00000  -0.00401  -0.00404   1.93324
    Z5       -0.26850   0.00019   0.00000   0.00039   0.00040  -0.26810
         Item               Value     Threshold  Converged?
 Maximum Force            0.001458     0.000450     NO 
 RMS     Force            0.000767     0.000300     NO 
 Maximum Displacement     0.004036     0.001800     NO 
 RMS     Displacement     0.001865     0.001200     NO 
 Predicted change in Energy=-1.011317D-05
 GradGradGradGradGradGradGradGradGradGradGradGradGradGradGradGradGradGrad


 ----------------------------------------------------------------------

 Electric dipole moment (input orientation):
 (Debye = 10**-18 statcoulomb cm , SI units = C m)
                  (au)            (Debye)         (10**-30 SI)
   Tot        0.107635D+01      0.273581D+01      0.912568D+01
   x         -0.107635D+01     -0.273581D+01     -0.912568D+01
   y         -0.135276D-03     -0.343836D-03     -0.114691D-02
   z          0.200767D-03      0.510300D-03      0.170218D-02

 Dipole polarizability, Alpha (input orientation).
 (esu units = cm**3 , SI units = C**2 m**2 J**-1)
 Alpha(0;0):
               (au)            (10**-24 esu)      (10**-40 SI)
   iso        0.289201D+02      0.428551D+01      0.476828D+01
   aniso      0.130550D+02      0.193456D+01      0.215249D+01
   xx         0.376234D+02      0.557522D+01      0.620327D+01
   yx        -0.109080D-01     -0.161640D-02     -0.179848D-02
   yy         0.245756D+02      0.364173D+01      0.405197D+01
   zx         0.599777D-02      0.888778D-03      0.988899D-03
   zy         0.942333D-03      0.139639D-03      0.155370D-03
   zz         0.245612D+02      0.363960D+01      0.404960D+01

 ----------------------------------------------------------------------

 Dipole orientation:
     6         -0.00041256          0.00032128          2.15079928
    17          0.00023708         -0.00016471         -1.25065284
     1          1.81133831         -0.73557453          2.78596229
     1         -1.54361535         -1.20113715          2.78533448
     1         -0.26926285          1.93759730          2.78500583

 Electric dipole moment (dipole orientation):
 (Debye = 10**-18 statcoulomb cm , SI units = C m)
                  (au)            (Debye)         (10**-30 SI)
   Tot        0.107635D+01      0.273581D+01      0.912568D+01
   x          0.000000D+00      0.000000D+00      0.000000D+00
   y          0.000000D+00      0.000000D+00      0.000000D+00
   z          0.107635D+01      0.273581D+01      0.912568D+01

 Dipole polarizability, Alpha (dipole orientation).
 (esu units = cm**3 , SI units = C**2 m**2 J**-1)
 Alpha(0;0):
               (au)            (10**-24 esu)      (10**-40 SI)
   iso        0.289201D+02      0.428551D+01      0.476828D+01
   aniso      0.130550D+02      0.193456D+01      0.215249D+01
   xx         0.245612D+02      0.363960D+01      0.404960D+01
   yx         0.937433D-03      0.138913D-03      0.154562D-03
   yy         0.245756D+02      0.364173D+01      0.405197D+01
   zx        -0.843590D-02     -0.125007D-02     -0.139089D-02
   zy         0.125469D-01      0.185927D-02      0.206871D-02
   zz         0.376234D+02      0.557522D+01      0.620327D+01

 ----------------------------------------------------------------------
 1\1\GINC-ANMOL\Freq\RM062X\6-311+G(d,p)\C1H3Cl1\ANMOL\22-Jul-2024\0\\#
  freq 6-311+g(d,p) scrf=(smd,solvent=water) m062x\\Title Card Required
 \\0,1\C,-1.138154,0.000027,-0.000006\Cl,0.661817,-0.000004,0.000002\H,
 -1.47404,-0.389555,0.958745\H,-1.474008,-0.635697,-0.816651\H,-1.47391
 7,1.025165,-0.142084\\Version=ES64L-G16RevA.03\State=1-A\HF=-500.09339
 42\RMSD=4.472e-09\RMSF=7.675e-04\ZeroPoint=0.0380172\Thermal=0.04103\D
 ipole=-1.0763503,-0.0001353,0.0002008\DipoleDeriv=0.8961838,-0.0017855
 ,-0.0005345,0.0004823,0.0824627,0.0002805,-0.0016859,-0.0004281,0.0839
 871,-0.7544784,0.0026018,0.0004298,-0.0002316,-0.2576766,0.0007908,-0.
 000442,-0.0003244,-0.2586165,-0.0476494,-0.010972,0.0275035,-0.0183125
 ,0.1097291,0.0496904,0.0459855,0.0502457,0.0054238,-0.0469844,-0.01763
 58,-0.0235783,-0.0290978,0.0756438,-0.0699604,-0.0374174,-0.0682519,0.
 0417878,-0.0470716,0.0277915,-0.0038204,0.0471595,-0.0101591,0.0191987
 ,-0.0064403,0.0187587,0.1274178\Polar=37.6234323,-0.010908,24.5755997,
 0.0059978,0.0009423,24.5612328\Quadrupole=1.004237,-0.50203,-0.502207,
 0.0003685,-0.0004378,-0.0001683\PG=C01 [X(C1H3Cl1)]\NImag=0\\0.3390118
 8,-0.00006683,0.58264111,-0.00000888,-0.00023117,0.58194527,-0.1435805
 9,-0.00005732,-0.00008010,0.21717524,-0.00002078,-0.03334952,-0.000007
 90,0.00044971,0.02184756,0.00000909,-0.00004389,-0.03319341,0.00022554
 ,0.00009310,0.02190235,-0.06527748,-0.02996714,0.07368688,-0.02462192,
 -0.00867310,0.02111324,0.07955023,-0.03077114,-0.08880648,0.09185599,0
 .00160539,0.00154611,-0.00208027,0.03175197,0.08582326,0.07566040,0.09
 186202,-0.27732589,-0.00409783,-0.00209049,0.00581391,-0.07785286,-0.0
 9885553,0.28875996,-0.06496712,-0.04870684,-0.06263940,-0.02448866,-0.
 01413228,-0.01813319,0.00517416,0.00668392,0.00637110,0.07909996,-0.05
 011356,-0.15067286,-0.12748988,0.00269425,0.00305621,0.00297318,0.0047
 0601,0.00859437,0.00945734,0.05160936,0.15232030,-0.06440720,-0.127487
 83,-0.21513043,0.00341461,0.00295404,0.00461816,-0.00794768,-0.0165591
 8,-0.01649727,0.06631467,0.13716367,0.22161764,-0.06518668,0.07879812,
 -0.01095850,-0.02448406,0.02237646,-0.00321469,0.00517501,-0.00927015,
 -0.00008081,0.00518167,-0.00889606,0.00262560,0.07931408,0.08097231,-0
 .30981225,0.03587297,-0.00469202,0.00689963,-0.00094212,0.00218225,-0.
 00715726,-0.00037334,0.00454583,-0.01329802,0.00392930,-0.08300837,0.3
 2336790,-0.01125341,0.03590087,-0.05629555,0.00053778,-0.00094876,0.00
 085900,-0.00899958,0.02563899,-0.00075071,0.00808681,-0.02210430,0.005
 39190,0.01162839,-0.03848680,0.05079535\\0.00128390,0.00004506,-0.0000
 1769,0.00021919,-0.00001063,-0.00000456,-0.00052706,-0.00056221,0.0013
 3537,-0.00050616,-0.00092994,-0.00112033,-0.00046988,0.00145772,-0.000
 19280\\\@


 ACTORS ARE SO FORTUNATE.  THEY CAN CHOOSE WHETHER
 THEY WILL APPEAR IN A TRAGEDY OR IN COMEDY,
 WHETHER THEY WILL SUFFER OF MAKE MERRY,
 LAUGH OR SHED TEARS.  BUT IN REAL LIFE IT IS DIFFERENT.
 MOST MEN AND WOMEN ARE FORCED TO PERFORM
 PARTS FOR WHICH THEY HAVE NO QUALIFICATIONS.
 THE WORLD IS A STAGE, BUT THE PLAY IS BADLY CAST.

                                   -- OSCAR WILDE
 Job cpu time:       0 days  0 hours  1 minutes 22.3 seconds.
 Elapsed time:       0 days  0 hours  0 minutes  8.3 seconds.
 File lengths (MBytes):  RWF=     14 Int=      0 D2E=      0 Chk=      3 Scr=      1
 Normal termination of Gaussian 16 at Mon Jul 22 16:28:00 2024.
