 Entering Gaussian System, Link 0=g16
 Input=pdt_spe.gjf
 Output=pdt_spe.log
 Initial command:
 /home/anmol/Softwares//g16/l1.exe "/home/anmol/scrh/Gau-433278.inp" -scrdir="/home/anmol/scrh/"
 Entering Link 1 = /home/anmol/Softwares//g16/l1.exe PID=    433280.
  
 Copyright (c) 1988,1990,1992,1993,1995,1998,2003,2009,2016,
            Gaussian, Inc.  All Rights Reserved.
  
 This is part of the Gaussian(R) 16 program.  It is based on
 the Gaussian(R) 09 system (copyright 2009, Gaussian, Inc.),
 the Gaussian(R) 03 system (copyright 2003, Gaussian, Inc.),
 the Gaussian(R) 98 system (copyright 1998, Gaussian, Inc.),
 the Gaussian(R) 94 system (copyright 1995, Gaussian, Inc.),
 the Gaussian 92(TM) system (copyright 1992, Gaussian, Inc.),
 the Gaussian 90(TM) system (copyright 1990, Gaussian, Inc.),
 the Gaussian 88(TM) system (copyright 1988, Gaussian, Inc.),
 the Gaussian 86(TM) system (copyright 1986, Carnegie Mellon
 University), and the Gaussian 82(TM) system (copyright 1983,
 Carnegie Mellon University). Gaussian is a federally registered
 trademark of Gaussian, Inc.
  
 This software contains proprietary and confidential information,
 including trade secrets, belonging to Gaussian, Inc.
  
 This software is provided under written license and may be
 used, copied, transmitted, or stored only in accord with that
 written license.
  
 The following legend is applicable only to US Government
 contracts under FAR:
  
                    RESTRICTED RIGHTS LEGEND
  
 Use, reproduction and disclosure by the US Government is
 subject to restrictions as set forth in subparagraphs (a)
 and (c) of the Commercial Computer Software - Restricted
 Rights clause in FAR 52.227-19.
  
 Gaussian, Inc.
 340 Quinnipiac St., Bldg. 40, Wallingford CT 06492
  
  
 ---------------------------------------------------------------
 Warning -- This program may not be used in any manner that
 competes with the business of Gaussian, Inc. or will provide
 assistance to any competitor of Gaussian, Inc.  The licensee
 of this program is prohibited from giving any competitor of
 Gaussian, Inc. access to this program.  By using this program,
 the user acknowledges that Gaussian, Inc. is engaged in the
 business of creating and licensing software in the field of
 computational chemistry and represents and warrants to the
 licensee that it is not a competitor of Gaussian, Inc. and that
 it will not use this program in any manner prohibited above.
 ---------------------------------------------------------------
  

 Cite this work as:
 Gaussian 16, Revision A.03,
 M. J. Frisch, G. W. Trucks, H. B. Schlegel, G. E. Scuseria, 
 M. A. Robb, J. R. Cheeseman, G. Scalmani, V. Barone, 
 G. A. Petersson, H. Nakatsuji, X. Li, M. Caricato, A. V. Marenich, 
 J. Bloino, B. G. Janesko, R. Gomperts, B. Mennucci, H. P. Hratchian, 
 J. V. Ortiz, A. F. Izmaylov, J. L. Sonnenberg, D. Williams-Young, 
 F. Ding, F. Lipparini, F. Egidi, J. Goings, B. Peng, A. Petrone, 
 T. Henderson, D. Ranasinghe, V. G. Zakrzewski, J. Gao, N. Rega, 
 G. Zheng, W. Liang, M. Hada, M. Ehara, K. Toyota, R. Fukuda, 
 J. Hasegawa, M. Ishida, T. Nakajima, Y. Honda, O. Kitao, H. Nakai, 
 T. Vreven, K. Throssell, J. A. Montgomery, Jr., J. E. Peralta, 
 F. Ogliaro, M. J. Bearpark, J. J. Heyd, E. N. Brothers, K. N. Kudin, 
 V. N. Staroverov, T. A. Keith, R. Kobayashi, J. Normand, 
 K. Raghavachari, A. P. Rendell, J. C. Burant, S. S. Iyengar, 
 J. Tomasi, M. Cossi, J. M. Millam, M. Klene, C. Adamo, R. Cammi, 
 J. W. Ochterski, R. L. Martin, K. Morokuma, O. Farkas, 
 J. B. Foresman, and D. J. Fox, Gaussian, Inc., Wallingford CT, 2016.
 
 ******************************************
 Gaussian 16:  ES64L-G16RevA.03 25-Dec-2016
                22-Jul-2024 
 ******************************************
 %nprocshared=10
 Will use up to   10 processors via shared memory.
 %mem=10GB
 --------------------------------------------------
 # freq 6-311+g(d,p) scrf=(smd,solvent=water) m062x
 --------------------------------------------------
 1/10=4,30=1,38=1/1,3;
 2/12=2,17=6,18=5,40=1/2;
 3/5=4,6=6,7=111,11=2,25=1,30=1,70=32201,71=2,72=1,74=-55,140=1/1,2,3;
 4//1;
 5/5=2,38=5,53=1,98=1/2;
 8/6=4,10=90,11=11/1;
 11/6=1,8=1,9=11,15=111,16=1/1,2,10;
 10/6=1/2;
 6/7=2,8=2,9=2,10=2,28=1/1;
 7/8=1,10=1,25=1/1,2,3,16;
 1/10=4,30=1/3;
 99//99;
 -------------------
 Title Card Required
 -------------------
 Symbolic Z-matrix:
 Charge =  0 Multiplicity = 1
 C                    -1.90149  -0.62807   0. 
 H                    -2.98101  -0.49273  -0.00012 
 H                    -1.58679  -1.16635  -0.89217 
 H                    -1.58698  -1.16626   0.89229 
 Cl                    1.73284  -0.08091   0. 
 N                    -1.24127   0.70195   0. 
 H                    -1.50363   1.24385  -0.82635 
 H                    -1.50385   1.24396   0.8262 
 H                    -0.19811   0.56768   0.00015 
 

 GradGradGradGradGradGradGradGradGradGradGradGradGradGradGradGradGradGrad
 Berny optimization.
 Initialization pass.
 Trust Radius=3.00D-01 FncErr=1.00D-07 GrdErr=1.00D-07 EigMax=2.50D+02 EigMin=1.00D-04
 Number of steps in this run=      2 maximum allowed number of steps=      2.
 GradGradGradGradGradGradGradGradGradGradGradGradGradGradGradGradGradGrad

                          Input orientation:                          
 ---------------------------------------------------------------------
 Center     Atomic      Atomic             Coordinates (Angstroms)
 Number     Number       Type             X           Y           Z
 ---------------------------------------------------------------------
      1          6           0       -1.901493   -0.628066    0.000000
      2          1           0       -2.981006   -0.492733   -0.000121
      3          1           0       -1.586793   -1.166349   -0.892170
      4          1           0       -1.586981   -1.166262    0.892289
      5         17           0        1.732838   -0.080906    0.000000
      6          7           0       -1.241273    0.701951    0.000000
      7          1           0       -1.503625    1.243846   -0.826346
      8          1           0       -1.503851    1.243963    0.826198
      9          1           0       -0.198114    0.567677    0.000151
 ---------------------------------------------------------------------
                    Distance matrix (angstroms):
                    1          2          3          4          5
     1  C    0.000000
     2  H    1.087963   0.000000
     3  H    1.088463   1.786992   0.000000
     4  H    1.088463   1.786993   1.784459   0.000000
     5  Cl   3.675289   4.731800   3.604734   3.604910   0.000000
     6  N    1.484869   2.110436   2.099023   2.099027   3.075419
     7  H    2.084515   2.425079   2.412528   2.961296   3.593398
     8  H    2.084518   2.425057   2.961296   2.412564   3.593611
     9  H    2.081178   2.978079   2.394058   2.394036   2.036967
                    6          7          8          9
     6  N    0.000000
     7  H    1.022412   0.000000
     8  H    1.022413   1.652544   0.000000
     9  H    1.051765   1.686612   1.686614   0.000000
 Stoichiometry    CH6ClN
 Framework group  C1[X(CH6ClN)]
 Deg. of freedom    21
 Full point group                 C1      NOp   1
 Largest Abelian subgroup         C1      NOp   1
 Largest concise Abelian subgroup C1      NOp   1
                         Standard orientation:                         
 ---------------------------------------------------------------------
 Center     Atomic      Atomic             Coordinates (Angstroms)
 Number     Number       Type             X           Y           Z
 ---------------------------------------------------------------------
      1          6           0        1.901493   -0.628066    0.000000
      2          1           0        2.981006   -0.492733    0.000121
      3          1           0        1.586793   -1.166349    0.892170
      4          1           0        1.586981   -1.166262   -0.892289
      5         17           0       -1.732838   -0.080906    0.000000
      6          7           0        1.241273    0.701951    0.000000
      7          1           0        1.503625    1.243846    0.826346
      8          1           0        1.503851    1.243963   -0.826198
      9          1           0        0.198114    0.567677   -0.000151
 ---------------------------------------------------------------------
 Rotational constants (GHZ):          23.7711154           2.6627795           2.4641513
 Standard basis: 6-311+G(d,p) (5D, 7F)
 There are   113 symmetry adapted cartesian basis functions of A   symmetry.
 There are   110 symmetry adapted basis functions of A   symmetry.
   110 basis functions,   173 primitive gaussians,   113 cartesian basis functions
    18 alpha electrons       18 beta electrons
       nuclear repulsion energy        99.5113989780 Hartrees.
 NAtoms=    9 NActive=    9 NUniq=    9 SFac= 1.00D+00 NAtFMM=   60 NAOKFM=F Big=F
 Integral buffers will be    131072 words long.
 Raffenetti 2 integral format.
 Two-electron integral symmetry is turned on.
 Force inversion solution in PCM.
 ------------------------------------------------------------------------------
 Polarizable Continuum Model (PCM)
 =================================
 Model                : PCM.
 Atomic radii         : SMD-Coulomb.
 Polarization charges : Total charges.
 Charge compensation  : None.
 Solution method      : Matrix inversion.
 Cavity type          : VdW (van der Waals Surface) (Alpha=1.000).
 Cavity algorithm     : GePol (No added spheres)
                        Default sphere list used, NSphG=    9.
                        Lebedev-Laikov grids with approx.  5.0 points / Ang**2.
                        Smoothing algorithm: York/Karplus (Gamma=1.0000).
                        Polarization charges: spherical gaussians, with
                                              point-specific exponents (IZeta= 3).
                        Self-potential: point-specific (ISelfS= 7).
                        Self-field    : sphere-specific E.n sum rule (ISelfD= 2).
 1st derivatives      : Analytical E(r).r(x)/FMM algorithm (CHGder, D1EAlg=3).
                        Cavity 1st derivative terms included.
 2nd derivatives      : Analytical E(r).r(xy)/FMM algorithm (CHGder, D2EAlg=3).
                        Cavity 2nd derivative terms included.
 Solvent              : Water, Eps=  78.355300 Eps(inf)=   1.777849
 ------------------------------------------------------------------------------
 Spheres list:
 ISph  on   Nord     Re0    Alpha      Xe            Ye            Ze
    1   C      1    1.8500  1.000      1.901493     -0.628066      0.000000
    2   H      2    1.2000  1.000      2.981006     -0.492733      0.000121
    3   H      3    1.2000  1.000      1.586793     -1.166349      0.892170
    4   H      4    1.2000  1.000      1.586981     -1.166262     -0.892289
    5  Cl      5    2.3800  1.000     -1.732838     -0.080906      0.000000
    6   N      6    1.8900  1.000      1.241273      0.701951      0.000000
    7   H      7    1.2000  1.000      1.503625      1.243846      0.826346
    8   H      8    1.2000  1.000      1.503851      1.243963     -0.826198
    9   H      9    1.2000  1.000      0.198114      0.567677     -0.000151
 ------------------------------------------------------------------------------
 ------------------------------------------------------------------------------
 Atomic radii for non-electrostatic terms: SMD-CDS.
 ------------------------------------------------------------------------------
 Nuclear repulsion after PCM non-electrostatic terms =       99.5161215116 Hartrees.
 One-electron integrals computed using PRISM.
 NBasis=   110 RedAO= T EigKep=  5.73D-04  NBF=   110
 NBsUse=   110 1.00D-06 EigRej= -1.00D+00 NBFU=   110
 ExpMin= 4.38D-02 ExpMax= 1.06D+05 ExpMxC= 3.62D+03 IAcc=3 IRadAn=         5 AccDes= 0.00D+00
 Harris functional with IExCor= 1009 and IRadAn=       5 diagonalized for initial guess.
 HarFok:  IExCor= 1009 AccDes= 0.00D+00 IRadAn=         5 IDoV= 1 UseB2=F ITyADJ=14
 ICtDFT=  3500011 ScaDFX=  1.000000  1.000000  1.000000  1.000000
 FoFCou: FMM=F IPFlag=           0 FMFlag=      100000 FMFlg1=           0
         NFxFlg=           0 DoJE=T BraDBF=F KetDBF=T FulRan=T
         wScrn=  0.000000 ICntrl=       500 IOpCl=  0 I1Cent=   200000004 NGrid=           0
         NMat0=    1 NMatS0=      1 NMatT0=    0 NMatD0=    1 NMtDS0=    0 NMtDT0=    0
 Petite list used in FoFCou.
 Keep R1 ints in memory in canonical form, NReq=28025539.
 Requested convergence on RMS density matrix=1.00D-08 within 128 cycles.
 Requested convergence on MAX density matrix=1.00D-06.
 Requested convergence on             energy=1.00D-06.
 No special actions if energy rises.
 Inv3:  Mode=1 IEnd=     2566875.
 Iteration    1 A*A^-1 deviation from unit magnitude is 3.22D-15 for    209.
 Iteration    1 A*A^-1 deviation from orthogonality  is 1.61D-15 for    290     83.
 Iteration    1 A^-1*A deviation from unit magnitude is 3.22D-15 for    209.
 Iteration    1 A^-1*A deviation from orthogonality  is 1.38D-15 for    312    105.
 Error on total polarization charges =  0.02115
 SCF Done:  E(RM062X) =  -556.690828404     A.U. after   11 cycles
            NFock= 11  Conv=0.51D-08     -V/T= 2.0027
 SMD-CDS (non-electrostatic) energy       (kcal/mol) =       2.96
 (included in total energy above)
 DoSCS=F DFT=T ScalE2(SS,OS)=  1.000000  1.000000
 Range of M.O.s used for correlation:     1   110
 NBasis=   110 NAE=    18 NBE=    18 NFC=     0 NFV=     0
 NROrb=    110 NOA=    18 NOB=    18 NVA=    92 NVB=    92

 **** Warning!!: The largest alpha MO coefficient is  0.24643270D+02

 Symmetrizing basis deriv contribution to polar:
 IMax=3 JMax=2 DiffMx= 0.00D+00
 G2DrvN: will do    10 centers at a time, making    1 passes.
 Calling FoFCou, ICntrl=  3107 FMM=F I1Cent=   0 AccDes= 0.00D+00.
 NEqPCM:  Using equilibrium solvation (IEInf=0, Eps=  78.3553, EpsInf=   1.7778)
 G2PCM: DoFxE=T DoFxN=T DoGrad=T DoDP/DQ/DG/TGxP=FFFF NFrqRd=   0 IEInf=0 SqF1=F DoCFld=F IF1Alg=4.
 End of G2Drv F.D. properties file   721 does not exist.
 End of G2Drv F.D. properties file   722 does not exist.
 End of G2Drv F.D. properties file   788 does not exist.
          IDoAtm=111111111
 NEqPCM:  Using equilibrium solvation (IEInf=0, Eps=  78.3553, EpsInf=   1.7778)
          Differentiating once with respect to electric field.
                with respect to dipole field.
          Differentiating once with respect to nuclear coordinates.
 Keep R1 ints in memory in canonical form, NReq=27999169.
          There are    30 degrees of freedom in the 1st order CPHF.  IDoFFX=6 NUNeed=     3.
     27 vectors produced by pass  0 Test12= 5.52D-15 3.33D-09 XBig12= 1.89D+01 1.46D+00.
 AX will form    27 AO Fock derivatives at one time.
     27 vectors produced by pass  1 Test12= 5.52D-15 3.33D-09 XBig12= 7.08D-01 3.31D-01.
     27 vectors produced by pass  2 Test12= 5.52D-15 3.33D-09 XBig12= 2.56D-02 4.73D-02.
     27 vectors produced by pass  3 Test12= 5.52D-15 3.33D-09 XBig12= 1.61D-04 2.35D-03.
     27 vectors produced by pass  4 Test12= 5.52D-15 3.33D-09 XBig12= 7.27D-07 2.17D-04.
     27 vectors produced by pass  5 Test12= 5.52D-15 3.33D-09 XBig12= 3.63D-09 1.23D-05.
      9 vectors produced by pass  6 Test12= 5.52D-15 3.33D-09 XBig12= 1.23D-11 5.18D-07.
      3 vectors produced by pass  7 Test12= 5.52D-15 3.33D-09 XBig12= 2.94D-14 2.93D-08.
 InvSVY:  IOpt=1 It=  1 EMax= 4.44D-15
 Solved reduced A of dimension   174 with    30 vectors.
 Isotropic polarizability for W=    0.000000       46.91 Bohr**3.
 End of Minotr F.D. properties file   721 does not exist.
 End of Minotr F.D. properties file   722 does not exist.
 End of Minotr F.D. properties file   788 does not exist.

 **********************************************************************

            Population analysis using the SCF density.

 **********************************************************************

 Orbital symmetries:
       Occupied  (A) (A) (A) (A) (A) (A) (A) (A) (A) (A) (A) (A)
                 (A) (A) (A) (A) (A) (A)
       Virtual   (A) (A) (A) (A) (A) (A) (A) (A) (A) (A) (A) (A)
                 (A) (A) (A) (A) (A) (A) (A) (A) (A) (A) (A) (A)
                 (A) (A) (A) (A) (A) (A) (A) (A) (A) (A) (A) (A)
                 (A) (A) (A) (A) (A) (A) (A) (A) (A) (A) (A) (A)
                 (A) (A) (A) (A) (A) (A) (A) (A) (A) (A) (A) (A)
                 (A) (A) (A) (A) (A) (A) (A) (A) (A) (A) (A) (A)
                 (A) (A) (A) (A) (A) (A) (A) (A) (A) (A) (A) (A)
                 (A) (A) (A) (A) (A) (A) (A) (A)
 The electronic state is 1-A.
 Alpha  occ. eigenvalues -- -102.56693 -14.83329 -10.57728  -9.70877  -7.43019
 Alpha  occ. eigenvalues --   -7.42959  -7.42958  -1.08252  -0.80314  -0.79428
 Alpha  occ. eigenvalues --   -0.63370  -0.62934  -0.54174  -0.46645  -0.46612
 Alpha  occ. eigenvalues --   -0.31465  -0.30896  -0.30883
 Alpha virt. eigenvalues --    0.01797   0.04099   0.05173   0.05257   0.08471
 Alpha virt. eigenvalues --    0.08803   0.09118   0.11122   0.13271   0.13762
 Alpha virt. eigenvalues --    0.15999   0.18377   0.19139   0.20914   0.21508
 Alpha virt. eigenvalues --    0.22656   0.24609   0.26676   0.33982   0.41565
 Alpha virt. eigenvalues --    0.42897   0.49195   0.51187   0.52300   0.53733
 Alpha virt. eigenvalues --    0.53988   0.56514   0.63821   0.65248   0.66301
 Alpha virt. eigenvalues --    0.70390   0.73808   0.79068   0.85854   0.88473
 Alpha virt. eigenvalues --    0.98600   1.01583   1.02090   1.02969   1.03087
 Alpha virt. eigenvalues --    1.04332   1.04798   1.08719   1.32100   1.33519
 Alpha virt. eigenvalues --    1.35073   1.48986   1.51842   1.55379   1.56211
 Alpha virt. eigenvalues --    1.65608   1.75101   1.75526   1.79149   1.80257
 Alpha virt. eigenvalues --    1.82152   1.95718   1.97801   2.12852   2.19592
 Alpha virt. eigenvalues --    2.20395   2.24358   2.35456   2.36053   2.42265
 Alpha virt. eigenvalues --    2.44799   2.48412   2.51713   2.52817   2.53933
 Alpha virt. eigenvalues --    2.68143   2.70546   2.73379   2.77923   2.78252
 Alpha virt. eigenvalues --    2.80918   3.00785   3.05160   3.07377   3.52857
 Alpha virt. eigenvalues --    3.84172   3.84189   4.73630   4.73760   4.82862
 Alpha virt. eigenvalues --    9.88941  23.98130  25.96299  25.99185  26.16012
 Alpha virt. eigenvalues --   35.62250 215.96525
          Condensed to atoms (all electrons):
               1          2          3          4          5          6
     1  C    5.118032   0.420557   0.406206   0.406210   0.040857   0.074279
     2  H    0.420557   0.457535  -0.020870  -0.020869  -0.000251  -0.041885
     3  H    0.406206  -0.020870   0.458532  -0.023758  -0.000760  -0.023527
     4  H    0.406210  -0.020869  -0.023758   0.458528  -0.000761  -0.023529
     5  Cl   0.040857  -0.000251  -0.000760  -0.000761  17.839372  -0.129861
     6  N    0.074279  -0.041885  -0.023527  -0.023529  -0.129861   6.618651
     7  H   -0.009666  -0.003243  -0.005542   0.003710   0.001444   0.341789
     8  H   -0.009663  -0.003243   0.003710  -0.005541   0.001448   0.341781
     9  H    0.001537   0.005781  -0.005778  -0.005778   0.120857   0.215717
               7          8          9
     1  C   -0.009666  -0.009663   0.001537
     2  H   -0.003243  -0.003243   0.005781
     3  H   -0.005542   0.003710  -0.005778
     4  H    0.003710  -0.005541  -0.005778
     5  Cl   0.001444   0.001448   0.120857
     6  N    0.341789   0.341781   0.215717
     7  H    0.324809  -0.018470  -0.012277
     8  H   -0.018470   0.324814  -0.012277
     9  H   -0.012277  -0.012277   0.383058
 Mulliken charges:
               1
     1  C   -0.448350
     2  H    0.206488
     3  H    0.211786
     4  H    0.211788
     5  Cl  -0.872346
     6  N   -0.373414
     7  H    0.377446
     8  H    0.377442
     9  H    0.309160
 Sum of Mulliken charges =  -0.00000
 Mulliken charges with hydrogens summed into heavy atoms:
               1
     1  C    0.181712
     5  Cl  -0.872346
     6  N    0.690634
 APT charges:
               1
     1  C    0.269554
     2  H    0.046420
     3  H    0.051334
     4  H    0.051334
     5  Cl  -1.050942
     6  N   -0.616387
     7  H    0.308428
     8  H    0.308422
     9  H    0.631837
 Sum of APT charges =   0.00000
 APT charges with hydrogens summed into heavy atoms:
               1
     1  C    0.418642
     5  Cl  -1.050942
     6  N    0.632299
 Electronic spatial extent (au):  <R**2>=            481.3421
 Charge=             -0.0000 electrons
 Dipole moment (field-independent basis, Debye):
    X=             13.3524    Y=              2.9566    Z=              0.0000  Tot=             13.6758
 Quadrupole moment (field-independent basis, Debye-Ang):
   XX=            -32.3140   YY=            -24.7543   ZZ=            -27.0563
   XY=              2.5972   XZ=             -0.0001   YZ=              0.0000
 Traceless Quadrupole moment (field-independent basis, Debye-Ang):
   XX=             -4.2725   YY=              3.2873   ZZ=              0.9852
   XY=              2.5972   XZ=             -0.0001   YZ=              0.0000
 Octapole moment (field-independent basis, Debye-Ang**2):
  XXX=             62.6975  YYY=              9.0215  ZZZ=              0.0004  XYY=             14.6969
  XXY=              6.3876  XXZ=             -0.0001  XZZ=             11.1188  YZZ=              3.5002
  YYZ=             -0.0000  XYZ=             -0.0001
 Hexadecapole moment (field-independent basis, Debye-Ang**3):
 XXXX=           -538.9594 YYYY=            -78.1612 ZZZZ=            -43.6367 XXXY=              7.9651
 XXXZ=             -0.0004 YYYX=             10.7207 YYYZ=             -0.0006 ZZZX=             -0.0001
 ZZZY=              0.0010 XXYY=            -95.1553 XXZZ=            -95.1716 YYZZ=            -16.3009
 XXYZ=             -0.0009 YYXZ=             -0.0009 ZZXY=              4.8288
 N-N= 9.951612151164D+01 E-N=-1.517960616657D+03  KE= 5.551749883520D+02
  Exact polarizability:  56.189   3.122  42.906  -0.000  -0.000  41.644
 Approx polarizability:  44.509   2.810  35.349  -0.000  -0.000  34.879
 D2PCM: PCM CHGder 2nd derivatives, FixD1E=F FixD2E=F DoIter=F DoCFld=F I1PDM=0
 Calling FoFJK, ICntrl=    100127 FMM=F ISym2X=0 I1Cent= 0 IOpClX= 0 NMat=1 NMatS=1 NMatT=0.
 Full mass-weighted force constant matrix:
 Low frequencies ---   -0.0030   -0.0019   -0.0013   18.3341   28.9386   65.1154
 Low frequencies ---  102.2399  198.4282  207.8393
 Diagonal vibrational polarizability:
      121.7714820      22.0221789       3.4286378
 Harmonic frequencies (cm**-1), IR intensities (KM/Mole), Raman scattering
 activities (A**4/AMU), depolarization ratios for plane and unpolarized
 incident light, reduced masses (AMU), force constants (mDyne/A),
 and normal coordinates:
                      1                      2                      3
                      A                      A                      A
 Frequencies --    101.7984               196.9064               207.8290
 Red. masses --      3.3544                 1.0640                 3.8312
 Frc consts  --      0.0205                 0.0243                 0.0975
 IR Inten    --     12.5318                 1.3348               158.9246
  Atom  AN      X      Y      Z        X      Y      Z        X      Y      Z
     1   6     0.34   0.04   0.00    -0.00  -0.00   0.01     0.01  -0.03  -0.00
     2   1     0.31   0.32   0.00    -0.00  -0.00   0.56     0.04  -0.28  -0.00
     3   1     0.49  -0.05   0.00    -0.43  -0.17  -0.24    -0.13   0.06   0.00
     4   1     0.49  -0.05  -0.00     0.43   0.17  -0.24    -0.13   0.06  -0.00
     5  17    -0.15   0.05   0.00    -0.00  -0.00   0.02    -0.17  -0.06  -0.00
     6   7    -0.01  -0.13  -0.00     0.00   0.00  -0.06     0.33   0.15   0.00
     7   1    -0.13  -0.07  -0.00    -0.18  -0.06   0.05     0.46   0.08   0.00
     8   1    -0.13  -0.07   0.00     0.19   0.06   0.05     0.46   0.08  -0.00
     9   1     0.02  -0.33  -0.00     0.00   0.00  -0.25     0.34   0.39   0.00
                      4                      5                      6
                      A                      A                      A
 Frequencies --    386.3845               934.9641               950.5516
 Red. masses --      1.0202                 1.0493                 1.0616
 Frc consts  --      0.0897                 0.5404                 0.5652
 IR Inten    --      1.0264                35.7100                91.0567
  Atom  AN      X      Y      Z        X      Y      Z        X      Y      Z
     1   6     0.00   0.00  -0.00     0.00   0.00  -0.04    -0.05  -0.01  -0.00
     2   1    -0.00  -0.00   0.21     0.00  -0.00   0.22    -0.11   0.50   0.00
     3   1    -0.17  -0.11  -0.13    -0.14   0.38   0.15     0.27  -0.12   0.04
     4   1     0.17   0.11  -0.13     0.14  -0.38   0.15     0.27  -0.12  -0.04
     5  17    -0.00  -0.00  -0.01    -0.00  -0.00  -0.00     0.00  -0.00   0.00
     6   7     0.00  -0.00   0.03     0.00   0.00  -0.04    -0.04  -0.02  -0.00
     7   1     0.43   0.22  -0.25     0.22  -0.42   0.17     0.36  -0.15  -0.04
     8   1    -0.43  -0.22  -0.25    -0.22   0.42   0.17     0.36  -0.15   0.04
     9   1    -0.00  -0.00   0.49    -0.00  -0.00   0.25    -0.09   0.48   0.00
                      7                      8                      9
                      A                      A                      A
 Frequencies --   1036.5810              1289.6129              1301.7477
 Red. masses --      4.2587                 1.4058                 1.4148
 Frc consts  --      2.6961                 1.3775                 1.4125
 IR Inten    --      9.7962                11.5869                 5.0828
  Atom  AN      X      Y      Z        X      Y      Z        X      Y      Z
     1   6    -0.17   0.36   0.00    -0.13  -0.06  -0.00    -0.00  -0.00   0.15
     2   1    -0.15   0.23  -0.00    -0.19   0.47  -0.00     0.00  -0.00  -0.35
     3   1    -0.17   0.32  -0.03     0.33  -0.10   0.13     0.07  -0.46  -0.10
     4   1    -0.17   0.32   0.03     0.33  -0.10  -0.13    -0.07   0.46  -0.10
     5  17    -0.00  -0.00   0.00    -0.00   0.00  -0.00    -0.00  -0.00  -0.00
     6   7     0.15  -0.30  -0.00     0.12   0.03   0.00    -0.00   0.00  -0.11
     7   1     0.14  -0.32   0.01    -0.36   0.13   0.09     0.14  -0.38   0.09
     8   1     0.14  -0.32  -0.01    -0.36   0.13  -0.09    -0.14   0.38   0.09
     9   1     0.15  -0.33  -0.00     0.17  -0.31   0.00    -0.00   0.00   0.23
                     10                     11                     12
                      A                      A                      A
 Frequencies --   1463.4109              1493.6552              1497.5619
 Red. masses --      1.1685                 1.0656                 1.0324
 Frc consts  --      1.4744                 1.4007                 1.3641
 IR Inten    --      2.7051                30.0820                25.7881
  Atom  AN      X      Y      Z        X      Y      Z        X      Y      Z
     1   6     0.06  -0.10   0.00    -0.03  -0.03  -0.00     0.00   0.00  -0.04
     2   1    -0.04   0.60  -0.00     0.02  -0.30   0.00    -0.00   0.00   0.68
     3   1    -0.37   0.39   0.14     0.27   0.39   0.35     0.48  -0.17   0.05
     4   1    -0.37   0.39  -0.14     0.27   0.39  -0.35    -0.48   0.16   0.05
     5  17     0.00   0.00   0.00    -0.00   0.00   0.00     0.00  -0.00  -0.00
     6   7     0.01  -0.01   0.00    -0.04   0.04  -0.00     0.00  -0.00  -0.03
     7   1    -0.02   0.01  -0.01     0.17  -0.17   0.06     0.02  -0.06   0.00
     8   1    -0.02   0.01   0.01     0.17  -0.17  -0.06    -0.02   0.06   0.00
     9   1     0.02   0.04  -0.00    -0.01  -0.28   0.00     0.00   0.00   0.03
                     13                     14                     15
                      A                      A                      A
 Frequencies --   1503.9258              1611.0452              1622.8264
 Red. masses --      1.1370                 1.0285                 1.0367
 Frc consts  --      1.5152                 1.5727                 1.6087
 IR Inten    --    125.0746                25.9653                43.6358
  Atom  AN      X      Y      Z        X      Y      Z        X      Y      Z
     1   6    -0.01  -0.00   0.00    -0.02  -0.01   0.00    -0.00  -0.00  -0.02
     2   1     0.03  -0.25   0.00    -0.03   0.07   0.00    -0.00   0.00   0.01
     3   1     0.15   0.20   0.17     0.01  -0.03   0.00    -0.01   0.03  -0.00
     4   1     0.15   0.20  -0.17     0.01  -0.03  -0.00     0.01  -0.03  -0.00
     5  17     0.00  -0.00   0.00    -0.00   0.00   0.00    -0.00  -0.00  -0.00
     6   7     0.02  -0.10  -0.00    -0.02  -0.03   0.00     0.00  -0.00  -0.04
     7   1    -0.23   0.30  -0.17     0.29   0.42  -0.38    -0.44   0.10   0.04
     8   1    -0.23   0.30   0.17     0.29   0.42   0.38     0.44  -0.10   0.04
     9   1    -0.05   0.62  -0.00     0.01  -0.42  -0.00    -0.00  -0.00   0.76
                     16                     17                     18
                      A                      A                      A
 Frequencies --   2887.4538              3106.0678              3201.6778
 Red. masses --      1.0819                 1.0318                 1.1090
 Frc consts  --      5.3147                 5.8648                 6.6980
 IR Inten    --   2047.5292                 7.8274                 2.9340
  Atom  AN      X      Y      Z        X      Y      Z        X      Y      Z
     1   6     0.00   0.00   0.00    -0.02   0.04   0.00    -0.00  -0.00  -0.10
     2   1    -0.04  -0.03  -0.00     0.56   0.07   0.00     0.00   0.00  -0.01
     3   1     0.01   0.01  -0.02    -0.17  -0.28   0.48    -0.21  -0.35   0.57
     4   1     0.01   0.01   0.02    -0.17  -0.28  -0.48     0.21   0.35   0.57
     5  17     0.00   0.00  -0.00     0.00   0.00  -0.00     0.00   0.00   0.00
     6   7    -0.08  -0.01  -0.00    -0.00  -0.00  -0.00    -0.00   0.00   0.00
     7   1    -0.01  -0.02  -0.04     0.00   0.00   0.01    -0.01  -0.00  -0.01
     8   1    -0.01  -0.02   0.04     0.00   0.00  -0.01     0.01   0.00  -0.01
     9   1     0.99   0.10   0.00     0.05   0.01   0.00     0.00  -0.00   0.00
                     19                     20                     21
                      A                      A                      A
 Frequencies --   3204.2862              3479.2607              3534.8798
 Red. masses --      1.1091                 1.0545                 1.0941
 Frc consts  --      6.7093                 7.5207                 8.0550
 IR Inten    --      1.1052               134.7452               173.7576
  Atom  AN      X      Y      Z        X      Y      Z        X      Y      Z
     1   6    -0.09  -0.04   0.00    -0.00  -0.00  -0.00     0.00   0.00  -0.00
     2   1     0.81   0.11   0.00     0.01   0.00   0.00    -0.00  -0.00   0.00
     3   1     0.11   0.19  -0.33     0.00   0.01  -0.01    -0.00  -0.01   0.01
     4   1     0.11   0.19   0.33     0.00   0.01   0.01     0.00   0.01   0.01
     5  17     0.00   0.00  -0.00     0.00   0.00  -0.00    -0.00  -0.00  -0.00
     6   7    -0.00   0.00  -0.00    -0.03  -0.05  -0.00     0.00   0.00  -0.08
     7   1    -0.00  -0.00  -0.01     0.18   0.36   0.58     0.19   0.37   0.57
     8   1    -0.00  -0.00   0.01     0.18   0.36  -0.58    -0.19  -0.37   0.57
     9   1     0.02  -0.01   0.00     0.03  -0.00   0.00    -0.00   0.00  -0.01

 -------------------
 - Thermochemistry -
 -------------------
 Temperature   298.150 Kelvin.  Pressure   1.00000 Atm.
 Atom     1 has atomic number  6 and mass  12.00000
 Atom     2 has atomic number  1 and mass   1.00783
 Atom     3 has atomic number  1 and mass   1.00783
 Atom     4 has atomic number  1 and mass   1.00783
 Atom     5 has atomic number 17 and mass  34.96885
 Atom     6 has atomic number  7 and mass  14.00307
 Atom     7 has atomic number  1 and mass   1.00783
 Atom     8 has atomic number  1 and mass   1.00783
 Atom     9 has atomic number  1 and mass   1.00783
 Molecular mass:    67.01888 amu.
 Principal axes and moments of inertia in atomic units:
                           1         2         3
     Eigenvalues --    75.92160 677.76593 732.39869
           X            0.99997  -0.00828  -0.00000
           Y            0.00828   0.99997  -0.00000
           Z            0.00000   0.00000   1.00000
 This molecule is an asymmetric top.
 Rotational symmetry number  1.
 Rotational temperatures (Kelvin)      1.14083     0.12779     0.11826
 Rotational constants (GHZ):          23.77112     2.66278     2.46415
 Zero-point vibrational energy     209420.8 (Joules/Mol)
                                   50.05278 (Kcal/Mol)
 Warning -- explicit consideration of   4 degrees of freedom as
           vibrations may cause significant error
 Vibrational temperatures:    146.47   283.30   299.02   555.92  1345.20
          (Kelvin)           1367.63  1491.41  1855.47  1872.92  2105.52
                             2149.04  2154.66  2163.81  2317.93  2334.89
                             4154.40  4468.94  4606.50  4610.25  5005.88
                             5085.90
 
 Zero-point correction=                           0.079764 (Hartree/Particle)
 Thermal correction to Energy=                    0.084938
 Thermal correction to Enthalpy=                  0.085882
 Thermal correction to Gibbs Free Energy=         0.051314
 Sum of electronic and zero-point Energies=           -556.611064
 Sum of electronic and thermal Energies=              -556.605890
 Sum of electronic and thermal Enthalpies=            -556.604946
 Sum of electronic and thermal Free Energies=         -556.639514
 
                     E (Thermal)             CV                S
                      KCal/Mol        Cal/Mol-Kelvin    Cal/Mol-Kelvin
 Total                   53.299             15.020             72.755
 Electronic               0.000              0.000              0.000
 Translational            0.889              2.981             38.525
 Rotational               0.889              2.981             25.136
 Vibrational             51.522              9.058              9.094
 Vibration     1          0.604              1.948              3.420
 Vibration     2          0.636              1.844              2.162
 Vibration     3          0.641              1.829              2.063
 Vibration     4          0.755              1.499              1.014
                       Q            Log10(Q)             Ln(Q)
 Total Bot       0.249556D-23        -23.602832        -54.347529
 Total V=0       0.121930D+14         13.086111         30.131883
 Vib (Bot)       0.166524D-35        -35.778523        -82.383095
 Vib (Bot)    1  0.201531D+01          0.304342          0.700774
 Vib (Bot)    2  0.101383D+01          0.005964          0.013733
 Vib (Bot)    3  0.956498D+00         -0.019316         -0.044477
 Vib (Bot)    4  0.465842D+00         -0.331762         -0.763909
 Vib (V=0)       0.813615D+01          0.910419          2.096317
 Vib (V=0)    1  0.257641D+01          0.411015          0.946397
 Vib (V=0)    2  0.163042D+01          0.212299          0.488837
 Vib (V=0)    3  0.157930D+01          0.198465          0.456982
 Vib (V=0)    4  0.118338D+01          0.073124          0.168375
 Electronic      0.100000D+01          0.000000          0.000000
 Translational   0.215650D+08          7.333750         16.886583
 Rotational      0.694931D+05          4.841942         11.148983
 ***** Axes restored to original set *****
 -------------------------------------------------------------------
 Center     Atomic                   Forces (Hartrees/Bohr)
 Number     Number              X              Y              Z
 -------------------------------------------------------------------
      1        6          -0.000426591   -0.000762930   -0.000000421
      2        1           0.001039748   -0.000102538    0.000000094
      3        1          -0.000267023    0.000529695    0.000829951
      4        1          -0.000266871    0.000530006   -0.000830010
      5       17           0.000010950   -0.000092719    0.000000981
      6        7           0.000260087    0.000531564    0.000003888
      7        1           0.000291598   -0.000429597    0.000783405
      8        1           0.000290583   -0.000430240   -0.000783600
      9        1          -0.000932482    0.000226759   -0.000004289
 -------------------------------------------------------------------
 Cartesian Forces:  Max     0.001039748 RMS     0.000508598

 GradGradGradGradGradGradGradGradGradGradGradGradGradGradGradGradGradGrad
 Berny optimization.
 Search for a local minimum.
 Step number   1 out of a maximum of    2
 All quantities printed in internal units (Hartrees-Bohrs-Radians)
 Second derivative matrix not updated -- analytic derivatives used.
 ITU=  0
     Eigenvalues ---    0.00170   0.00173   0.00604   0.01612   0.03816
     Eigenvalues ---    0.04234   0.07171   0.08964   0.09071   0.11274
     Eigenvalues ---    0.11487   0.14144   0.15173   0.17099   0.29237
     Eigenvalues ---    0.50594   0.75502   0.77417   0.83265   0.99000
     Eigenvalues ---    0.99562
 Angle between quadratic step and forces=  75.78 degrees.
 Linear search not attempted -- first point.
 B after Tr=    -0.000718   -0.004637    0.000065
         Rot=    1.000000    0.000004    0.000011    0.000673 Ang=   0.08 deg.
 Variable       Old X    -DE/DX   Delta X   Delta X   Delta X     New X
                                 (Linear)    (Quad)   (Total)
    X1       -3.59330  -0.00043   0.00000   0.00566   0.00334  -3.58996
    Y1       -1.18687  -0.00076   0.00000  -0.00017   0.00002  -1.18685
    Z1        0.00000  -0.00000   0.00000  -0.00000  -0.00001  -0.00001
    X2       -5.63328   0.00104   0.00000   0.00769   0.00571  -5.62758
    Y2       -0.93113  -0.00010   0.00000  -0.00775  -0.00481  -0.93594
    Z2       -0.00023   0.00000   0.00000   0.00012   0.00007  -0.00016
    X3       -2.99860  -0.00027   0.00000   0.00934   0.00570  -2.99291
    Y3       -2.20408   0.00053   0.00000   0.00411   0.00348  -2.20060
    Z3       -1.68596   0.00083   0.00000   0.00220   0.00222  -1.68374
    X4       -2.99896  -0.00027   0.00000   0.00953   0.00582  -2.99314
    Y4       -2.20392   0.00053   0.00000   0.00408   0.00348  -2.20044
    Z4        1.68618  -0.00083   0.00000  -0.00230  -0.00228   1.68390
    X5        3.27459   0.00001   0.00000  -0.00232  -0.00326   3.27133
    Y5       -0.15289  -0.00009   0.00000  -0.00683  -0.01588  -0.16877
    Z5        0.00000   0.00000   0.00000   0.00007   0.00021   0.00021
    X6       -2.34567   0.00026   0.00000  -0.00414  -0.00306  -2.34873
    Y6        1.32650   0.00053   0.00000   0.00441   0.00293   1.32943
    Z6        0.00000   0.00000   0.00000  -0.00005  -0.00004  -0.00004
    X7       -2.84144   0.00029   0.00000  -0.00664  -0.00415  -2.84559
    Y7        2.35053  -0.00043   0.00000   0.00228   0.00147   2.35200
    Z7       -1.56157   0.00078   0.00000   0.00192   0.00190  -1.55967
    X8       -2.84187   0.00029   0.00000  -0.00633  -0.00391  -2.84578
    Y8        2.35075  -0.00043   0.00000   0.00218   0.00138   2.35213
    Z8        1.56129  -0.00078   0.00000  -0.00185  -0.00186   1.55943
    X9       -0.37438  -0.00093   0.00000  -0.00692  -0.00618  -0.38056
    Y9        1.07275   0.00023   0.00000   0.01204   0.00791   1.08067
    Z9        0.00029  -0.00000   0.00000  -0.00026  -0.00021   0.00008
         Item               Value     Threshold  Converged?
 Maximum Force            0.001040     0.000450     NO 
 RMS     Force            0.000509     0.000300     NO 
 Maximum Displacement     0.015876     0.001800     NO 
 RMS     Displacement     0.004685     0.001200     NO 
 Predicted change in Energy=-9.572167D-06
 GradGradGradGradGradGradGradGradGradGradGradGradGradGradGradGradGradGrad


 ----------------------------------------------------------------------

 Electric dipole moment (input orientation):
 (Debye = 10**-18 statcoulomb cm , SI units = C m)
                  (au)            (Debye)         (10**-30 SI)
   Tot        0.538049D+01      0.136758D+02      0.456177D+02
   x         -0.525325D+01     -0.133524D+02     -0.445389D+02
   y          0.116320D+01      0.295656D+01      0.986202D+01
   z         -0.141991D-04     -0.360905D-04     -0.120385D-03

 Dipole polarizability, Alpha (input orientation).
 (esu units = cm**3 , SI units = C**2 m**2 J**-1)
 Alpha(0;0):
               (au)            (10**-24 esu)      (10**-40 SI)
   iso        0.469128D+02      0.695176D+01      0.773487D+01
   aniso      0.149682D+02      0.221807D+01      0.246793D+01
   xx         0.561891D+02      0.832636D+01      0.926433D+01
   yx        -0.312211D+01     -0.462649D+00     -0.514766D+00
   yy         0.429057D+02      0.635796D+01      0.707419D+01
   zx        -0.363848D-03     -0.539167D-04     -0.599904D-04
   zy         0.137944D-03      0.204412D-04      0.227439D-04
   zz         0.416436D+02      0.617095D+01      0.686611D+01

 ----------------------------------------------------------------------

 Dipole orientation:
     6         -0.41845358         -1.88986256          3.25173723
     1         -0.46003413         -2.07661625          5.29876744
     1         -2.25145592         -2.36951730          2.45119998
     1          1.04095548         -3.09845297          2.45157349
    17          0.12076615          0.54544435         -3.23020372
     7          0.17036742          0.76938304          2.57696781
     1         -1.16129233          1.97850211          3.28240526
     1          1.88773960          1.30349747          3.28286180
     1          0.20921509          0.94353139          0.59744473

 Electric dipole moment (dipole orientation):
 (Debye = 10**-18 statcoulomb cm , SI units = C m)
                  (au)            (Debye)         (10**-30 SI)
   Tot        0.538049D+01      0.136758D+02      0.456177D+02
   x          0.000000D+00      0.000000D+00      0.000000D+00
   y          0.000000D+00      0.000000D+00      0.000000D+00
   z          0.538049D+01      0.136758D+02      0.456177D+02

 Dipole polarizability, Alpha (dipole orientation).
 (esu units = cm**3 , SI units = C**2 m**2 J**-1)
 Alpha(0;0):
               (au)            (10**-24 esu)      (10**-40 SI)
   iso        0.469128D+02      0.695176D+01      0.773487D+01
   aniso      0.149682D+02      0.221807D+01      0.246793D+01
   xx         0.416701D+02      0.617486D+01      0.687046D+01
   yx         0.119280D+00      0.176755D-01      0.196667D-01
   yy         0.421821D+02      0.625074D+01      0.695488D+01
   zx         0.613593D-02      0.909252D-03      0.101168D-02
   zy         0.257439D-01      0.381486D-02      0.424460D-02
   zz         0.568862D+02      0.842967D+01      0.937927D+01

 ----------------------------------------------------------------------
 1\1\GINC-ANMOL\Freq\RM062X\6-311+G(d,p)\C1H6Cl1N1\ANMOL\22-Jul-2024\0\
 \# freq 6-311+g(d,p) scrf=(smd,solvent=water) m062x\\Title Card Requir
 ed\\0,1\C,-1.901493,-0.628066,0.\H,-2.981006,-0.492733,-0.000121\H,-1.
 586793,-1.166349,-0.89217\H,-1.586981,-1.166262,0.892289\Cl,1.732838,-
 0.080906,0.\N,-1.241273,0.701951,0.\H,-1.503625,1.243846,-0.826346\H,-
 1.503851,1.243963,0.826198\H,-0.198114,0.567677,0.000151\\Version=ES64
 L-G16RevA.03\State=1-A\HF=-556.6908284\RMSD=5.079e-09\RMSF=5.086e-04\Z
 eroPoint=0.0797642\Thermal=0.0849381\Dipole=-5.2532524,1.1632002,-0.00
 00142\DipoleDeriv=0.2343801,0.1863442,-0.0000025,0.2573551,0.4655288,-
 0.0000043,-0.0000014,-0.0000005,0.1087541,-0.0493545,-0.0126142,-0.000
 0179,0.0303431,0.0520313,0.0000119,-0.0000182,0.0000043,0.1365845,0.09
 53002,0.0012916,0.0708056,-0.0370655,0.0489568,-0.0223467,0.0492358,-0
 .0660551,0.0097436,0.0953249,0.001272,-0.0707888,-0.0370776,0.0489668,
 0.0223373,-0.0492144,0.066052,0.0097105,-1.3163602,0.0818573,0.0000108
 ,0.1529771,-0.9340126,-0.0000052,0.0000495,-0.0000122,-0.9024526,-1.02
 98539,0.0500375,0.0000014,0.0409175,-0.5306082,-0.0000051,-0.0000629,0
 .0000088,-0.2886985,0.2863038,-0.0347441,0.017446,-0.0361201,0.2945343
 ,-0.0315513,0.011924,-0.0505394,0.344445,0.2862928,-0.0347528,-0.01744
 84,-0.0361211,0.2945422,0.0315493,-0.0119295,0.0505316,0.3444304,1.397
 9667,-0.2386914,-0.0000061,-0.3352085,0.2600607,0.0000141,0.0000173,0.
 0000104,0.2374832\Polar=56.1890702,-3.1221072,42.905666,-0.0003638,0.0
 001379,41.6436292\Quadrupole=-3.176479,2.444015,0.732464,-1.9309475,-0
 .0000382,-0.0000063\PG=C01 [X(C1H6Cl1N1)]\NImag=0\\0.60283711,-0.05932
 665,0.50139313,-0.00000095,0.00000021,0.63009600,-0.32837684,0.0369270
 9,-0.00003072,0.35125230,0.05063333,-0.05685307,0.00000621,-0.03701281
 ,0.06326179,-0.00003133,0.00000490,-0.05150484,0.00003360,-0.00000519,
 0.04644504,-0.07747415,0.04444271,0.07474280,-0.00530491,0.01455980,0.
 02585768,0.07598803,0.03766874,-0.11324683,-0.10443406,0.00127702,-0.0
 0090828,-0.00205764,-0.03841576,0.12986687,0.06900167,-0.11555279,-0.2
 4549767,-0.00071788,0.00231016,0.00236740,-0.07516284,0.12241988,0.255
 13698,-0.07744446,0.04441112,-0.07471093,-0.00529954,0.01455772,-0.025
 86073,0.00284765,-0.00570973,0.00824685,0.07595653,0.03764041,-0.11322
 528,0.10442819,0.00127666,-0.00090826,0.00205830,-0.00570799,0.0103854
 7,-0.01256975,-0.03838279,0.12984196,-0.06896927,0.11554782,-0.2455473
 9,0.00071618,-0.00230676,0.00236214,-0.00824208,0.01256571,-0.01727485
 ,0.07512795,-0.12241453,0.25519069,0.00134955,0.00470187,-0.00000040,-
 0.00054439,-0.00107322,0.00000004,0.00009497,-0.00039284,-0.00011419,0
 .00009553,-0.00039292,0.00011437,0.01921801,0.00076737,-0.00126983,-0.
 00000006,0.00014613,0.00070034,0.00000003,-0.00001414,0.00011121,0.000
 11737,-0.00001385,0.00011117,-0.00011732,-0.00471599,0.00272201,-0.000
 00010,-0.00000036,-0.00006030,0.00000002,0.00000010,-0.00003755,0.0000
 2165,0.00003211,-0.00004274,-0.00002188,-0.00003205,-0.00004276,0.0000
 0148,-0.00000024,0.00119849,-0.11777387,-0.04164393,0.00000037,-0.0140
 6960,-0.04363883,0.00000052,0.00437750,0.00651950,-0.00139482,0.004373
 19,0.00651292,0.00139424,-0.03295854,0.01045048,0.00000166,0.60951251,
 -0.04866580,-0.18659354,-0.00000107,-0.00118336,-0.00209172,-0.0000003
 0,-0.01322509,-0.02401922,0.00257553,-0.01322297,-0.02401560,-0.002575
 47,0.00897680,-0.00027041,-0.00000051,-0.06759138,0.60388287,0.0000000
 9,0.00000076,-0.09718248,-0.00000156,-0.00000491,0.00007069,-0.0172087
 3,-0.02982215,0.00395928,0.01721071,0.02982598,0.00396045,0.00000009,-
 0.00000019,0.00399658,-0.00001373,0.00000266,0.73954695,0.00511118,-0.
 00951557,0.01653965,0.00016766,0.00042423,0.00044865,0.00026685,0.0007
 7401,-0.00030937,-0.00142208,-0.00345594,-0.00044195,-0.00154281,0.000
 16799,0.00081056,-0.07960906,0.05231981,-0.08015749,0.07754456,0.00793
 472,-0.01771422,0.02518456,0.00032901,0.00160483,-0.00014349,0.0009293
 1,0.00111898,-0.00021547,-0.00306087,-0.00399446,-0.00126497,-0.000575
 78,0.00023137,-0.00002233,0.04982788,-0.15323110,0.15303086,-0.0502555
 5,0.16227155,0.00296355,-0.00033084,0.00484491,-0.00002614,-0.00033213
 ,-0.00017501,-0.00005756,-0.00043228,0.00034176,-0.00056137,-0.0017839
 2,0.00119578,0.00115203,-0.00024793,-0.00011407,-0.07528184,0.15107182
 ,-0.29550611,0.08332184,-0.16188403,0.30828754,0.00511632,-0.00951827,
 -0.01653860,0.00016789,0.00042418,-0.00044858,-0.00142242,-0.00345658,
 0.00044177,0.00026664,0.00077391,0.00030928,-0.00154409,0.00016841,-0.
 00081014,-0.07965700,0.05237682,0.08020729,0.00179501,-0.00714331,-0.0
 0890625,0.07759659,0.00794116,-0.01771706,-0.02517922,0.00032902,0.001
 60516,0.00014335,-0.00306091,-0.00399409,0.00126489,0.00092924,0.00111
 889,0.00021565,-0.00057581,0.00023140,0.00002225,0.04988457,-0.1532840
 4,-0.15303797,-0.00714664,0.01265896,0.01605419,-0.05031603,0.16232665
 ,-0.00296445,0.00033121,0.00484289,0.00002614,0.00033208,-0.00017512,0
 .00056102,0.00178358,0.00119569,0.00005738,0.00043237,0.00034167,-0.00
 115246,0.00024792,-0.00011396,0.07533173,-0.15107805,-0.29543154,0.008
 91355,-0.01606088,-0.02119161,-0.08337586,0.16189160,0.30820704,-0.013
 34483,-0.01047838,-0.00000123,0.00200743,0.00112560,0.00000015,0.00062
 648,0.00173564,0.00000880,0.00062654,0.00173574,-0.00000872,0.01583176
 ,-0.00695640,-0.00000325,-0.29419514,0.03021517,-0.00003668,-0.0023113
 1,0.00201459,-0.00260427,-0.00231894,0.00201540,0.00260295,0.29307801,
 -0.03459327,0.00522671,-0.00000478,-0.00208877,-0.00641079,0.00000004,
 0.00049206,0.00068590,-0.00034982,0.00049214,0.00068611,0.00034986,-0.
 00595211,-0.00256726,0.00000104,0.02967878,-0.06037724,0.00000496,0.01
 668766,-0.00294591,-0.00211488,0.01669087,-0.00294588,0.00212019,-0.02
 140737,0.06864836,0.00000078,-0.00000091,0.00000888,0.00000036,0.00000
 044,0.00064727,-0.00051195,-0.00005516,-0.00018584,0.00051202,0.000055
 42,-0.00018573,-0.00000096,0.00000040,-0.00478368,-0.00003814,0.000005
 38,-0.06341381,-0.02912544,0.00137576,0.00231680,0.02912109,-0.0013747
 3,0.00232496,0.00004224,-0.00000660,0.06327114\\0.00042659,0.00076293,
 0.00000042,-0.00103975,0.00010254,-0.00000009,0.00026702,-0.00052969,-
 0.00082995,0.00026687,-0.00053001,0.00083001,-0.00001095,0.00009272,-0
 .00000098,-0.00026009,-0.00053156,-0.00000389,-0.00029160,0.00042960,-
 0.00078341,-0.00029058,0.00043024,0.00078360,0.00093248,-0.00022676,0.
 00000429\\\@


 YOU CAN WIPE THE SLATE CLEAN, BUT YOU'LL STILL
 HAVE TO EAT A LITTLE CHALK DUST.
 Job cpu time:       0 days  0 hours  4 minutes 51.6 seconds.
 Elapsed time:       0 days  0 hours  0 minutes 29.3 seconds.
 File lengths (MBytes):  RWF=     32 Int=      0 D2E=      0 Chk=      4 Scr=      1
 Normal termination of Gaussian 16 at Mon Jul 22 16:30:00 2024.
