 Entering Gaussian System, Link 0=g16
 Input=ts_spe.gjf
 Output=ts_spe.log
 Initial command:
 /home/anmol/Softwares//g16/l1.exe "/home/anmol/scrh/Gau-433024.inp" -scrdir="/home/anmol/scrh/"
 Entering Link 1 = /home/anmol/Softwares//g16/l1.exe PID=    433026.
  
 Copyright (c) 1988,1990,1992,1993,1995,1998,2003,2009,2016,
            Gaussian, Inc.  All Rights Reserved.
  
 This is part of the Gaussian(R) 16 program.  It is based on
 the Gaussian(R) 09 system (copyright 2009, Gaussian, Inc.),
 the Gaussian(R) 03 system (copyright 2003, Gaussian, Inc.),
 the Gaussian(R) 98 system (copyright 1998, Gaussian, Inc.),
 the Gaussian(R) 94 system (copyright 1995, Gaussian, Inc.),
 the Gaussian 92(TM) system (copyright 1992, Gaussian, Inc.),
 the Gaussian 90(TM) system (copyright 1990, Gaussian, Inc.),
 the Gaussian 88(TM) system (copyright 1988, Gaussian, Inc.),
 the Gaussian 86(TM) system (copyright 1986, Carnegie Mellon
 University), and the Gaussian 82(TM) system (copyright 1983,
 Carnegie Mellon University). Gaussian is a federally registered
 trademark of Gaussian, Inc.
  
 This software contains proprietary and confidential information,
 including trade secrets, belonging to Gaussian, Inc.
  
 This software is provided under written license and may be
 used, copied, transmitted, or stored only in accord with that
 written license.
  
 The following legend is applicable only to US Government
 contracts under FAR:
  
                    RESTRICTED RIGHTS LEGEND
  
 Use, reproduction and disclosure by the US Government is
 subject to restrictions as set forth in subparagraphs (a)
 and (c) of the Commercial Computer Software - Restricted
 Rights clause in FAR 52.227-19.
  
 Gaussian, Inc.
 340 Quinnipiac St., Bldg. 40, Wallingford CT 06492
  
  
 ---------------------------------------------------------------
 Warning -- This program may not be used in any manner that
 competes with the business of Gaussian, Inc. or will provide
 assistance to any competitor of Gaussian, Inc.  The licensee
 of this program is prohibited from giving any competitor of
 Gaussian, Inc. access to this program.  By using this program,
 the user acknowledges that Gaussian, Inc. is engaged in the
 business of creating and licensing software in the field of
 computational chemistry and represents and warrants to the
 licensee that it is not a competitor of Gaussian, Inc. and that
 it will not use this program in any manner prohibited above.
 ---------------------------------------------------------------
  

 Cite this work as:
 Gaussian 16, Revision A.03,
 M. J. Frisch, G. W. Trucks, H. B. Schlegel, G. E. Scuseria, 
 M. A. Robb, J. R. Cheeseman, G. Scalmani, V. Barone, 
 G. A. Petersson, H. Nakatsuji, X. Li, M. Caricato, A. V. Marenich, 
 J. Bloino, B. G. Janesko, R. Gomperts, B. Mennucci, H. P. Hratchian, 
 J. V. Ortiz, A. F. Izmaylov, J. L. Sonnenberg, D. Williams-Young, 
 F. Ding, F. Lipparini, F. Egidi, J. Goings, B. Peng, A. Petrone, 
 T. Henderson, D. Ranasinghe, V. G. Zakrzewski, J. Gao, N. Rega, 
 G. Zheng, W. Liang, M. Hada, M. Ehara, K. Toyota, R. Fukuda, 
 J. Hasegawa, M. Ishida, T. Nakajima, Y. Honda, O. Kitao, H. Nakai, 
 T. Vreven, K. Throssell, J. A. Montgomery, Jr., J. E. Peralta, 
 F. Ogliaro, M. J. Bearpark, J. J. Heyd, E. N. Brothers, K. N. Kudin, 
 V. N. Staroverov, T. A. Keith, R. Kobayashi, J. Normand, 
 K. Raghavachari, A. P. Rendell, J. C. Burant, S. S. Iyengar, 
 J. Tomasi, M. Cossi, J. M. Millam, M. Klene, C. Adamo, R. Cammi, 
 J. W. Ochterski, R. L. Martin, K. Morokuma, O. Farkas, 
 J. B. Foresman, and D. J. Fox, Gaussian, Inc., Wallingford CT, 2016.
 
 ******************************************
 Gaussian 16:  ES64L-G16RevA.03 25-Dec-2016
                22-Jul-2024 
 ******************************************
 %nprocshared=10
 Will use up to   10 processors via shared memory.
 %mem=10GB
 --------------------------------------------------
 # freq 6-311+g(d,p) scrf=(smd,solvent=water) m062x
 --------------------------------------------------
 1/10=4,30=1,38=1/1,3;
 2/12=2,17=6,18=5,40=1/2;
 3/5=4,6=6,7=111,11=2,25=1,30=1,70=32201,71=2,72=1,74=-55,140=1/1,2,3;
 4//1;
 5/5=2,38=5,53=1,98=1/2;
 8/6=4,10=90,11=11/1;
 11/6=1,8=1,9=11,15=111,16=1/1,2,10;
 10/6=1/2;
 6/7=2,8=2,9=2,10=2,28=1/1;
 7/8=1,10=1,25=1/1,2,3,16;
 1/10=4,30=1/3;
 99//99;
 -------------------
 Title Card Required
 -------------------
 Symbolic Z-matrix:
 Charge =  0 Multiplicity = 1
 C                    -0.41793   0.00018  0. 
 H                    -0.47215  -0.53854  -0.93172 
 H                    -0.47221   1.07651  -0.00051 
 H                    -0.47215  -0.53765   0.93223 
 Cl                    1.78823  -0.00005   0. 
 N                    -2.53959  -0.00015   0. 
 H                    -2.89931   0.47542  -0.82372 
 H                    -2.8993    0.47604   0.82336 
 H                    -2.90008  -0.95099   0.00036 
 

 GradGradGradGradGradGradGradGradGradGradGradGradGradGradGradGradGradGrad
 Berny optimization.
 Initialization pass.
 Trust Radius=3.00D-01 FncErr=1.00D-07 GrdErr=1.00D-07 EigMax=2.50D+02 EigMin=1.00D-04
 Number of steps in this run=      2 maximum allowed number of steps=      2.
 GradGradGradGradGradGradGradGradGradGradGradGradGradGradGradGradGradGrad

                          Input orientation:                          
 ---------------------------------------------------------------------
 Center     Atomic      Atomic             Coordinates (Angstroms)
 Number     Number       Type             X           Y           Z
 ---------------------------------------------------------------------
      1          6           0       -0.417926    0.000176   -0.000002
      2          1           0       -0.472149   -0.538537   -0.931724
      3          1           0       -0.472208    1.076509   -0.000511
      4          1           0       -0.472152   -0.537653    0.932231
      5         17           0        1.788229   -0.000046    0.000000
      6          7           0       -2.539592   -0.000150    0.000000
      7          1           0       -2.899309    0.475415   -0.823718
      8          1           0       -2.899298    0.476041    0.823361
      9          1           0       -2.900082   -0.950992    0.000364
 ---------------------------------------------------------------------
                    Distance matrix (angstroms):
                    1          2          3          4          5
     1  C    0.000000
     2  H    1.077617   0.000000
     3  H    1.077701   1.864278   0.000000
     4  H    1.077617   1.863955   1.864276   0.000000
     5  Cl   2.206155   2.503476   2.503707   2.503477   0.000000
     6  N    2.121666   2.330728   2.330938   2.330724   4.327821
     7  H    2.657371   2.632654   2.632452   3.162397   4.783052
     8  H    2.657364   3.162395   2.632507   2.632578   4.783042
     9  H    2.658161   2.633204   3.163121   2.633262   4.783781
                    6          7          8          9
     6  N    0.000000
     7  H    1.016892   0.000000
     8  H    1.016892   1.647079   0.000000
     9  H    1.016884   1.647346   1.647346   0.000000
 Stoichiometry    CH6ClN
 Framework group  C1[X(CH6ClN)]
 Deg. of freedom    21
 Full point group                 C1      NOp   1
 Largest Abelian subgroup         C1      NOp   1
 Largest concise Abelian subgroup C1      NOp   1
                         Standard orientation:                         
 ---------------------------------------------------------------------
 Center     Atomic      Atomic             Coordinates (Angstroms)
 Number     Number       Type             X           Y           Z
 ---------------------------------------------------------------------
      1          6           0       -0.417926    0.000176   -0.000002
      2          1           0       -0.472149   -0.538870   -0.931531
      3          1           0       -0.472208    1.076509   -0.000896
      4          1           0       -0.472152   -0.537320    0.932423
      5         17           0        1.788229   -0.000046    0.000000
      6          7           0       -2.539592   -0.000150    0.000000
      7          1           0       -2.899309    0.475120   -0.823888
      8          1           0       -2.899298    0.476335    0.823191
      9          1           0       -2.900082   -0.950992    0.000704
 ---------------------------------------------------------------------
 Rotational constants (GHZ):          81.0290434           2.1842037           2.1841905
 Standard basis: 6-311+G(d,p) (5D, 7F)
 There are   113 symmetry adapted cartesian basis functions of A   symmetry.
 There are   110 symmetry adapted basis functions of A   symmetry.
   110 basis functions,   173 primitive gaussians,   113 cartesian basis functions
    18 alpha electrons       18 beta electrons
       nuclear repulsion energy        97.5563658438 Hartrees.
 NAtoms=    9 NActive=    9 NUniq=    9 SFac= 1.00D+00 NAtFMM=   60 NAOKFM=F Big=F
 Integral buffers will be    131072 words long.
 Raffenetti 2 integral format.
 Two-electron integral symmetry is turned on.
 Force inversion solution in PCM.
 ------------------------------------------------------------------------------
 Polarizable Continuum Model (PCM)
 =================================
 Model                : PCM.
 Atomic radii         : SMD-Coulomb.
 Polarization charges : Total charges.
 Charge compensation  : None.
 Solution method      : Matrix inversion.
 Cavity type          : VdW (van der Waals Surface) (Alpha=1.000).
 Cavity algorithm     : GePol (No added spheres)
                        Default sphere list used, NSphG=    9.
                        Lebedev-Laikov grids with approx.  5.0 points / Ang**2.
                        Smoothing algorithm: York/Karplus (Gamma=1.0000).
                        Polarization charges: spherical gaussians, with
                                              point-specific exponents (IZeta= 3).
                        Self-potential: point-specific (ISelfS= 7).
                        Self-field    : sphere-specific E.n sum rule (ISelfD= 2).
 1st derivatives      : Analytical E(r).r(x)/FMM algorithm (CHGder, D1EAlg=3).
                        Cavity 1st derivative terms included.
 2nd derivatives      : Analytical E(r).r(xy)/FMM algorithm (CHGder, D2EAlg=3).
                        Cavity 2nd derivative terms included.
 Solvent              : Water, Eps=  78.355300 Eps(inf)=   1.777849
 ------------------------------------------------------------------------------
 Spheres list:
 ISph  on   Nord     Re0    Alpha      Xe            Ye            Ze
    1   C      1    1.8500  1.000     -0.417926      0.000176     -0.000002
    2   H      2    1.2000  1.000     -0.472149     -0.538870     -0.931531
    3   H      3    1.2000  1.000     -0.472208      1.076509     -0.000896
    4   H      4    1.2000  1.000     -0.472152     -0.537320      0.932423
    5  Cl      5    2.3800  1.000      1.788229     -0.000046      0.000000
    6   N      6    1.8900  1.000     -2.539592     -0.000150      0.000000
    7   H      7    1.2000  1.000     -2.899309      0.475120     -0.823888
    8   H      8    1.2000  1.000     -2.899298      0.476335      0.823191
    9   H      9    1.2000  1.000     -2.900082     -0.950992      0.000704
 ------------------------------------------------------------------------------
 ------------------------------------------------------------------------------
 Atomic radii for non-electrostatic terms: SMD-CDS.
 ------------------------------------------------------------------------------
 Nuclear repulsion after PCM non-electrostatic terms =       97.5622597349 Hartrees.
 One-electron integrals computed using PRISM.
 NBasis=   110 RedAO= T EigKep=  5.26D-04  NBF=   110
 NBsUse=   110 1.00D-06 EigRej= -1.00D+00 NBFU=   110
 ExpMin= 4.38D-02 ExpMax= 1.06D+05 ExpMxC= 3.62D+03 IAcc=3 IRadAn=         5 AccDes= 0.00D+00
 Harris functional with IExCor= 1009 and IRadAn=       5 diagonalized for initial guess.
 HarFok:  IExCor= 1009 AccDes= 0.00D+00 IRadAn=         5 IDoV= 1 UseB2=F ITyADJ=14
 ICtDFT=  3500011 ScaDFX=  1.000000  1.000000  1.000000  1.000000
 FoFCou: FMM=F IPFlag=           0 FMFlag=      100000 FMFlg1=           0
         NFxFlg=           0 DoJE=T BraDBF=F KetDBF=T FulRan=T
         wScrn=  0.000000 ICntrl=       500 IOpCl=  0 I1Cent=   200000004 NGrid=           0
         NMat0=    1 NMatS0=      1 NMatT0=    0 NMatD0=    1 NMtDS0=    0 NMtDT0=    0
 Petite list used in FoFCou.
 Keep R1 ints in memory in canonical form, NReq=28025521.
 Requested convergence on RMS density matrix=1.00D-08 within 128 cycles.
 Requested convergence on MAX density matrix=1.00D-06.
 Requested convergence on             energy=1.00D-06.
 No special actions if energy rises.
 Inv3:  Mode=1 IEnd=     2528172.
 Iteration    1 A*A^-1 deviation from unit magnitude is 3.00D-15 for    235.
 Iteration    1 A*A^-1 deviation from orthogonality  is 2.07D-15 for    382    244.
 Iteration    1 A^-1*A deviation from unit magnitude is 3.22D-15 for    235.
 Iteration    1 A^-1*A deviation from orthogonality  is 2.12D-15 for    482    310.
 Error on total polarization charges =  0.01946
 SCF Done:  E(RM062X) =  -556.620516279     A.U. after   12 cycles
            NFock= 12  Conv=0.34D-08     -V/T= 2.0026
 SMD-CDS (non-electrostatic) energy       (kcal/mol) =       3.70
 (included in total energy above)
 DoSCS=F DFT=T ScalE2(SS,OS)=  1.000000  1.000000
 Range of M.O.s used for correlation:     1   110
 NBasis=   110 NAE=    18 NBE=    18 NFC=     0 NFV=     0
 NROrb=    110 NOA=    18 NOB=    18 NVA=    92 NVB=    92

 **** Warning!!: The largest alpha MO coefficient is  0.25112165D+02

 Symmetrizing basis deriv contribution to polar:
 IMax=3 JMax=2 DiffMx= 0.00D+00
 G2DrvN: will do    10 centers at a time, making    1 passes.
 Calling FoFCou, ICntrl=  3107 FMM=F I1Cent=   0 AccDes= 0.00D+00.
 NEqPCM:  Using equilibrium solvation (IEInf=0, Eps=  78.3553, EpsInf=   1.7778)
 G2PCM: DoFxE=T DoFxN=T DoGrad=T DoDP/DQ/DG/TGxP=FFFF NFrqRd=   0 IEInf=0 SqF1=F DoCFld=F IF1Alg=4.
 End of G2Drv F.D. properties file   721 does not exist.
 End of G2Drv F.D. properties file   722 does not exist.
 End of G2Drv F.D. properties file   788 does not exist.
          IDoAtm=111111111
 NEqPCM:  Using equilibrium solvation (IEInf=0, Eps=  78.3553, EpsInf=   1.7778)
          Differentiating once with respect to electric field.
                with respect to dipole field.
          Differentiating once with respect to nuclear coordinates.
 Keep R1 ints in memory in canonical form, NReq=27999151.
          There are    30 degrees of freedom in the 1st order CPHF.  IDoFFX=6 NUNeed=     3.
     27 vectors produced by pass  0 Test12= 5.52D-15 3.33D-09 XBig12= 5.24D+01 4.48D+00.
 AX will form    27 AO Fock derivatives at one time.
     27 vectors produced by pass  1 Test12= 5.52D-15 3.33D-09 XBig12= 3.93D+00 5.87D-01.
     27 vectors produced by pass  2 Test12= 5.52D-15 3.33D-09 XBig12= 2.49D-01 1.40D-01.
     27 vectors produced by pass  3 Test12= 5.52D-15 3.33D-09 XBig12= 3.65D-03 1.44D-02.
     27 vectors produced by pass  4 Test12= 5.52D-15 3.33D-09 XBig12= 1.82D-05 1.08D-03.
     27 vectors produced by pass  5 Test12= 5.52D-15 3.33D-09 XBig12= 9.05D-08 6.00D-05.
     10 vectors produced by pass  6 Test12= 5.52D-15 3.33D-09 XBig12= 3.32D-10 3.82D-06.
      3 vectors produced by pass  7 Test12= 5.52D-15 3.33D-09 XBig12= 9.95D-13 2.23D-07.
      1 vectors produced by pass  8 Test12= 5.52D-15 3.33D-09 XBig12= 2.88D-15 1.18D-08.
 InvSVY:  IOpt=1 It=  1 EMax= 8.88D-16
 Solved reduced A of dimension   176 with    30 vectors.
 Isotropic polarizability for W=    0.000000       63.98 Bohr**3.
 End of Minotr F.D. properties file   721 does not exist.
 End of Minotr F.D. properties file   722 does not exist.
 End of Minotr F.D. properties file   788 does not exist.

 **********************************************************************

            Population analysis using the SCF density.

 **********************************************************************

 Orbital symmetries:
       Occupied  (A) (A) (A) (A) (A) (A) (A) (A) (A) (A) (A) (A)
                 (A) (A) (A) (A) (A) (A)
       Virtual   (A) (A) (A) (A) (A) (A) (A) (A) (A) (A) (A) (A)
                 (A) (A) (A) (A) (A) (A) (A) (A) (A) (A) (A) (A)
                 (A) (A) (A) (A) (A) (A) (A) (A) (A) (A) (A) (A)
                 (A) (A) (A) (A) (A) (A) (A) (A) (A) (A) (A) (A)
                 (A) (A) (A) (A) (A) (A) (A) (A) (A) (A) (A) (A)
                 (A) (A) (A) (A) (A) (A) (A) (A) (A) (A) (A) (A)
                 (A) (A) (A) (A) (A) (A) (A) (A) (A) (A) (A) (A)
                 (A) (A) (A) (A) (A) (A) (A) (A)
 The electronic state is 1-A.
 Alpha  occ. eigenvalues -- -102.59652 -14.74995 -10.60170  -9.73836  -7.46122
 Alpha  occ. eigenvalues --   -7.45816  -7.45816  -0.97837  -0.85443  -0.76413
 Alpha  occ. eigenvalues --   -0.55597  -0.55592  -0.49898  -0.49897  -0.42171
 Alpha  occ. eigenvalues --   -0.32636  -0.32636  -0.31159
 Alpha virt. eigenvalues --    0.01143   0.02655   0.06096   0.06097   0.07019
 Alpha virt. eigenvalues --    0.08063   0.10087   0.10087   0.13722   0.14272
 Alpha virt. eigenvalues --    0.14276   0.17504   0.17509   0.20709   0.22479
 Alpha virt. eigenvalues --    0.23368   0.23370   0.25432   0.38014   0.42565
 Alpha virt. eigenvalues --    0.42569   0.46637   0.50721   0.50726   0.54721
 Alpha virt. eigenvalues --    0.54735   0.61575   0.65202   0.65903   0.65905
 Alpha virt. eigenvalues --    0.75674   0.75677   0.77227   0.88764   0.92468
 Alpha virt. eigenvalues --    0.99305   0.99309   1.00971   1.00971   1.03195
 Alpha virt. eigenvalues --    1.11179   1.13785   1.13790   1.22902   1.22913
 Alpha virt. eigenvalues --    1.29429   1.45009   1.55920   1.55935   1.56110
 Alpha virt. eigenvalues --    1.57853   1.77525   1.77525   1.84639   1.93306
 Alpha virt. eigenvalues --    1.93319   1.97458   1.97472   2.02056   2.02657
 Alpha virt. eigenvalues --    2.02678   2.30290   2.35070   2.35073   2.42800
 Alpha virt. eigenvalues --    2.45902   2.45913   2.55355   2.57654   2.57657
 Alpha virt. eigenvalues --    2.65961   2.65964   2.72462   2.74803   2.74810
 Alpha virt. eigenvalues --    2.84973   3.01811   3.08906   3.08923   3.11041
 Alpha virt. eigenvalues --    3.76757   3.76771   4.28377   4.78006   4.78036
 Alpha virt. eigenvalues --    9.92600  23.97250  25.96696  25.96698  26.28351
 Alpha virt. eigenvalues --   35.70441 216.01615
          Condensed to atoms (all electrons):
               1          2          3          4          5          6
     1  C    5.341163   0.419970   0.419906   0.419970   0.037689  -0.131116
     2  H    0.419970   0.474558  -0.013285  -0.013287  -0.052808  -0.059747
     3  H    0.419906  -0.013285   0.474335  -0.013285  -0.052791  -0.059681
     4  H    0.419970  -0.013287  -0.013285   0.474561  -0.052808  -0.059748
     5  Cl   0.037689  -0.052808  -0.052791  -0.052808  17.529856   0.047582
     6  N   -0.131116  -0.059747  -0.059681  -0.059748   0.047582   6.853973
     7  H    0.011895   0.000986   0.000985   0.002622   0.000279   0.341658
     8  H    0.011894   0.002622   0.000985   0.000986   0.000279   0.341659
     9  H    0.011918   0.000989   0.002618   0.000989   0.000280   0.341599
               7          8          9
     1  C    0.011895   0.011894   0.011918
     2  H    0.000986   0.002622   0.000989
     3  H    0.000985   0.000985   0.002618
     4  H    0.002622   0.000986   0.000989
     5  Cl   0.000279   0.000279   0.000280
     6  N    0.341658   0.341659   0.341599
     7  H    0.373710  -0.015544  -0.015513
     8  H   -0.015544   0.373708  -0.015513
     9  H   -0.015513  -0.015513   0.373671
 Mulliken charges:
               1
     1  C   -0.543290
     2  H    0.240003
     3  H    0.240212
     4  H    0.240001
     5  Cl  -0.457558
     6  N   -0.616179
     7  H    0.298924
     8  H    0.298925
     9  H    0.298962
 Sum of Mulliken charges =  -0.00000
 Mulliken charges with hydrogens summed into heavy atoms:
               1
     1  C    0.176926
     5  Cl  -0.457558
     6  N    0.280632
 APT charges:
               1
     1  C    1.636164
     2  H   -0.018883
     3  H   -0.017584
     4  H   -0.018878
     5  Cl  -1.215374
     6  N   -1.008893
     7  H    0.214543
     8  H    0.214530
     9  H    0.214376
 Sum of APT charges =  -0.00000
 APT charges with hydrogens summed into heavy atoms:
               1
     1  C    1.580818
     5  Cl  -1.215374
     6  N   -0.365445
 Electronic spatial extent (au):  <R**2>=            531.7395
 Charge=             -0.0000 electrons
 Dipole moment (field-independent basis, Debye):
    X=            -11.2001    Y=              0.0019    Z=              0.0000  Tot=             11.2001
 Quadrupole moment (field-independent basis, Debye-Ang):
   XX=            -24.7830   YY=            -26.6703   ZZ=            -26.6745
   XY=             -0.0022   XZ=             -0.0000   YZ=              0.0000
 Traceless Quadrupole moment (field-independent basis, Debye-Ang):
   XX=              1.2596   YY=             -0.6277   ZZ=             -0.6319
   XY=             -0.0022   XZ=             -0.0000   YZ=              0.0000
 Octapole moment (field-independent basis, Debye-Ang**2):
  XXX=            -75.9581  YYY=              0.0674  ZZZ=              0.0005  XYY=            -11.6756
  XXY=             -0.0005  XXZ=              0.0000  XZZ=            -11.6685  YZZ=             -0.0643
  YYZ=             -0.0005  XYZ=              0.0000
 Hexadecapole moment (field-independent basis, Debye-Ang**3):
 XXXX=           -530.9137 YYYY=            -41.6950 ZZZZ=            -41.6993 XXXY=              0.0112
 XXXZ=              0.0001 YYYX=              3.0018 YYYZ=             -0.0000 ZZZX=              0.0064
 ZZZY=              0.0000 XXYY=            -97.9650 XXZZ=            -97.9871 YYZZ=            -13.8987
 XXYZ=             -0.0001 YYXZ=             -0.0065 ZZXY=             -3.0060
 N-N= 9.756225973488D+01 E-N=-1.514497831336D+03  KE= 5.551570460559D+02
  Exact polarizability: 112.005   0.030  39.937   0.000   0.000  39.988
 Approx polarizability:  81.719   0.001  34.309   0.000  -0.000  34.306
 D2PCM: PCM CHGder 2nd derivatives, FixD1E=F FixD2E=F DoIter=F DoCFld=F I1PDM=0
 Calling FoFJK, ICntrl=    100127 FMM=F ISym2X=0 I1Cent= 0 IOpClX= 0 NMat=1 NMatS=1 NMatT=0.
 Full mass-weighted force constant matrix:
 Low frequencies --- -613.7479   -0.0030   -0.0003    0.0014    3.5186    7.4581
 Low frequencies ---  129.2505  176.2662  215.9102
 ******    1 imaginary frequencies (negative Signs) ****** 
 Diagonal vibrational polarizability:
      161.5013662       8.9905874       8.4648515
 Harmonic frequencies (cm**-1), IR intensities (KM/Mole), Raman scattering
 activities (A**4/AMU), depolarization ratios for plane and unpolarized
 incident light, reduced masses (AMU), force constants (mDyne/A),
 and normal coordinates:
                      1                      2                      3
                      A                      A                      A
 Frequencies --   -613.7478               175.2972               215.9102
 Red. masses --      8.9379                 1.0109                 2.3311
 Frc consts  --      1.9837                 0.0183                 0.0640
 IR Inten    --   2015.9771                 0.0508                 0.5891
  Atom  AN      X      Y      Z        X      Y      Z        X      Y      Z
     1   6     0.76  -0.00   0.00    -0.00   0.00  -0.01     0.00   0.31   0.00
     2   1    -0.00   0.02   0.03     0.00   0.33  -0.21    -0.01   0.32  -0.00
     3   1     0.00  -0.04   0.00     0.00   0.00   0.36     0.02   0.31   0.00
     4   1    -0.00   0.02  -0.03    -0.00  -0.33  -0.21    -0.01   0.32   0.01
     5  17    -0.12   0.00  -0.00    -0.00  -0.00   0.00    -0.00  -0.07  -0.00
     6   7    -0.28  -0.00  -0.00     0.00  -0.00   0.00     0.00  -0.09  -0.00
     7   1    -0.32  -0.01   0.02    -0.03  -0.37  -0.20    -0.24  -0.28  -0.01
     8   1    -0.32  -0.01  -0.02     0.03   0.37  -0.20    -0.24  -0.28   0.00
     9   1    -0.33   0.02   0.00     0.00   0.00   0.45     0.49  -0.28  -0.00
                      4                      5                      6
                      A                      A                      A
 Frequencies --    220.3511               279.2591               479.4565
 Red. masses --      2.4176                 6.6110                 1.3179
 Frc consts  --      0.0692                 0.3038                 0.1785
 IR Inten    --      0.2693                27.3418                66.0189
  Atom  AN      X      Y      Z        X      Y      Z        X      Y      Z
     1   6    -0.00  -0.00   0.32     0.12  -0.00   0.00     0.00  -0.11  -0.00
     2   1    -0.02   0.04   0.30     0.09  -0.00   0.00    -0.05  -0.11   0.00
     3   1    -0.00  -0.00   0.38     0.09  -0.01  -0.00     0.10  -0.11  -0.00
     4   1     0.02  -0.04   0.30     0.09  -0.00  -0.00    -0.05  -0.11  -0.00
     5  17     0.00   0.00  -0.07    -0.28   0.00  -0.00    -0.00   0.02   0.00
     6   7    -0.00   0.00  -0.10     0.47   0.00  -0.00    -0.00   0.12   0.00
     7   1     0.40  -0.05  -0.30     0.47   0.00  -0.00    -0.37  -0.18  -0.01
     8   1    -0.40   0.05  -0.30     0.47   0.00   0.00    -0.37  -0.18   0.01
     9   1    -0.00   0.00  -0.23     0.47   0.00  -0.00     0.74  -0.17  -0.00
                      7                      8                      9
                      A                      A                      A
 Frequencies --    491.8079              1104.9184              1106.6247
 Red. masses --      1.2861                 1.0202                 1.0205
 Frc consts  --      0.1833                 0.7338                 0.7363
 IR Inten    --     66.0634                 2.5013                 2.6475
  Atom  AN      X      Y      Z        X      Y      Z        X      Y      Z
     1   6    -0.00   0.00  -0.10    -0.00   0.00   0.01     0.00  -0.01   0.00
     2   1    -0.09   0.01  -0.11     0.70   0.01  -0.04    -0.41   0.06  -0.02
     3   1    -0.00   0.00  -0.10    -0.00  -0.00  -0.06     0.80   0.03  -0.00
     4   1     0.09  -0.01  -0.11    -0.70  -0.01  -0.04    -0.42   0.06   0.02
     5  17     0.00  -0.00   0.01    -0.00  -0.00  -0.01     0.00   0.01  -0.00
     6   7     0.00  -0.00   0.11     0.00   0.00   0.03     0.00  -0.03   0.00
     7   1     0.65  -0.02  -0.18     0.06  -0.01  -0.00     0.02   0.00   0.01
     8   1    -0.64   0.02  -0.18    -0.06   0.01  -0.00     0.02   0.00  -0.01
     9   1    -0.00   0.00  -0.19     0.00   0.00  -0.01    -0.09   0.00  -0.00
                     10                     11                     12
                      A                      A                      A
 Frequencies --   1114.5120              1197.9703              1386.0466
 Red. masses --      1.1951                 1.0503                 1.1054
 Frc consts  --      0.8746                 0.8881                 1.2512
 IR Inten    --    214.2452               176.8152                 9.8613
  Atom  AN      X      Y      Z        X      Y      Z        X      Y      Z
     1   6     0.01  -0.00   0.00    -0.03   0.00  -0.00    -0.00  -0.09  -0.00
     2   1    -0.01   0.00  -0.00     0.57  -0.02  -0.02     0.05   0.56  -0.38
     3   1     0.03   0.00  -0.00     0.59   0.03   0.00    -0.07  -0.09   0.03
     4   1    -0.01   0.00   0.00     0.57  -0.02   0.02     0.04   0.59   0.39
     5  17    -0.00   0.00  -0.00    -0.02   0.00   0.00    -0.00   0.00   0.00
     6   7    -0.12  -0.00   0.00    -0.04  -0.00  -0.00    -0.00   0.00   0.00
     7   1     0.54   0.11  -0.18    -0.04  -0.00   0.00    -0.00  -0.00  -0.00
     8   1     0.54   0.11   0.18    -0.04  -0.00  -0.00    -0.00  -0.00   0.00
     9   1     0.53  -0.21   0.00    -0.05   0.00   0.00     0.01   0.00  -0.00
                     13                     14                     15
                      A                      A                      A
 Frequencies --   1386.5233              1611.3593              1613.7551
 Red. masses --      1.1058                 1.0630                 1.0629
 Frc consts  --      1.2526                 1.6262                 1.6309
 IR Inten    --      9.7423                56.0535                56.1365
  Atom  AN      X      Y      Z        X      Y      Z        X      Y      Z
     1   6     0.00   0.00  -0.09    -0.00  -0.00  -0.00     0.00  -0.00   0.00
     2   1     0.06  -0.41   0.15     0.01  -0.00  -0.00     0.00   0.00  -0.00
     3   1     0.00   0.00   0.80    -0.00  -0.00   0.00    -0.01  -0.00   0.00
     4   1    -0.06   0.36   0.12    -0.01   0.00  -0.00     0.00  -0.00   0.00
     5  17     0.00  -0.00   0.00     0.00   0.00   0.00    -0.00   0.00  -0.00
     6   7     0.00  -0.00   0.00     0.00  -0.00  -0.07     0.00  -0.07   0.00
     7   1     0.01  -0.00  -0.00     0.22   0.40   0.09    -0.13   0.53   0.39
     8   1    -0.01   0.00  -0.00    -0.22  -0.38   0.08    -0.13   0.54  -0.39
     9   1    -0.00  -0.00  -0.00     0.00  -0.00   0.76     0.25  -0.14  -0.01
                     16                     17                     18
                      A                      A                      A
 Frequencies --   3157.7203              3356.3259              3357.9647
 Red. masses --      1.0083                 1.1259                 1.1258
 Frc consts  --      5.9239                 7.4726                 7.4791
 IR Inten    --      0.1113                 3.8898                 4.0089
  Atom  AN      X      Y      Z        X      Y      Z        X      Y      Z
     1   6     0.01   0.00  -0.00     0.00   0.00  -0.10     0.00  -0.10  -0.00
     2   1    -0.03  -0.29  -0.50     0.03   0.36   0.61     0.02   0.20   0.35
     3   1    -0.03   0.57  -0.00     0.00  -0.00  -0.01    -0.04   0.81  -0.00
     4   1    -0.03  -0.29   0.50    -0.03  -0.35   0.61     0.02   0.19  -0.35
     5  17    -0.00  -0.00   0.00     0.00   0.00   0.00     0.00   0.00   0.00
     6   7     0.00  -0.00   0.00     0.00   0.00   0.00    -0.00   0.00   0.00
     7   1    -0.00  -0.00   0.00     0.00   0.00  -0.00    -0.00  -0.00   0.00
     8   1    -0.00  -0.00  -0.00    -0.00  -0.00  -0.00    -0.00  -0.00  -0.00
     9   1    -0.00   0.00   0.00    -0.00   0.00  -0.00     0.01  -0.00  -0.00
                     19                     20                     21
                      A                      A                      A
 Frequencies --   3487.3896              3614.5687              3617.5917
 Red. masses --      1.0262                 1.0931                 1.0930
 Frc consts  --      7.3532                 8.4145                 8.4278
 IR Inten    --     35.6336                68.1730                67.6217
  Atom  AN      X      Y      Z        X      Y      Z        X      Y      Z
     1   6    -0.00   0.00   0.00     0.00   0.00  -0.00     0.00   0.00   0.00
     2   1     0.00  -0.00  -0.00    -0.00  -0.00   0.00    -0.00   0.00   0.00
     3   1     0.00   0.00  -0.00     0.00   0.00   0.00     0.00   0.00  -0.00
     4   1     0.00  -0.00   0.00    -0.00  -0.00  -0.00     0.00  -0.00   0.00
     5  17     0.00  -0.00   0.00    -0.00  -0.00  -0.00    -0.00  -0.00   0.00
     6   7    -0.04  -0.00  -0.00     0.00  -0.08   0.00     0.00  -0.00  -0.08
     7   1     0.17  -0.27   0.47    -0.15   0.19  -0.35     0.24  -0.34   0.57
     8   1     0.17  -0.27  -0.47    -0.14   0.18   0.34    -0.24   0.34   0.57
     9   1     0.18   0.56  -0.00     0.28   0.75  -0.00     0.00   0.00  -0.02

 -------------------
 - Thermochemistry -
 -------------------
 Temperature   298.150 Kelvin.  Pressure   1.00000 Atm.
 Atom     1 has atomic number  6 and mass  12.00000
 Atom     2 has atomic number  1 and mass   1.00783
 Atom     3 has atomic number  1 and mass   1.00783
 Atom     4 has atomic number  1 and mass   1.00783
 Atom     5 has atomic number 17 and mass  34.96885
 Atom     6 has atomic number  7 and mass  14.00307
 Atom     7 has atomic number  1 and mass   1.00783
 Atom     8 has atomic number  1 and mass   1.00783
 Atom     9 has atomic number  1 and mass   1.00783
 Molecular mass:    67.01888 amu.
 Principal axes and moments of inertia in atomic units:
                           1         2         3
     Eigenvalues --    22.27277 826.26965 826.27464
           X            1.00000  -0.00000  -0.00000
           Y            0.00000   1.00000   0.00000
           Z            0.00000  -0.00000   1.00000
 This molecule is an asymmetric top.
 Rotational symmetry number  1.
 Rotational temperatures (Kelvin)      3.88878     0.10483     0.10482
 Rotational constants (GHZ):          81.02904     2.18420     2.18419
    1 imaginary frequencies ignored.
 Zero-point vibrational energy     197236.4 (Joules/Mol)
                                   47.14063 (Kcal/Mol)
 Warning -- explicit consideration of   6 degrees of freedom as
           vibrations may cause significant error
 Vibrational temperatures:    252.21   310.65   317.04   401.79   689.83
          (Kelvin)            707.60  1589.73  1592.19  1603.53  1723.61
                             1994.21  1994.90  2318.39  2321.83  4543.26
                             4829.00  4831.36  5017.58  5200.56  5204.91
 
 Zero-point correction=                           0.075123 (Hartree/Particle)
 Thermal correction to Energy=                    0.080650
 Thermal correction to Enthalpy=                  0.081594
 Thermal correction to Gibbs Free Energy=         0.047247
 Sum of electronic and zero-point Energies=           -556.545393
 Sum of electronic and thermal Energies=              -556.539866
 Sum of electronic and thermal Enthalpies=            -556.538922
 Sum of electronic and thermal Free Energies=         -556.573270
 
                     E (Thermal)             CV                S
                      KCal/Mol        Cal/Mol-Kelvin    Cal/Mol-Kelvin
 Total                   50.609             17.084             72.290
 Electronic               0.000              0.000              0.000
 Translational            0.889              2.981             38.525
 Rotational               0.889              2.981             24.234
 Vibrational             48.831             11.122              9.531
 Vibration     1          0.627              1.873              2.378
 Vibration     2          0.645              1.817              1.993
 Vibration     3          0.647              1.810              1.956
 Vibration     4          0.680              1.712              1.538
 Vibration     5          0.836              1.296              0.712
 Vibration     6          0.848              1.268              0.679
                       Q            Log10(Q)             Ln(Q)
 Total Bot       0.185371D-21        -21.731959        -50.039685
 Total V=0       0.664303D+13         12.822366         29.524590
 Vib (Bot)       0.194731D-33        -33.710565        -77.621443
 Vib (Bot)    1  0.114761D+01          0.059794          0.137680
 Vib (Bot)    2  0.917695D+00         -0.037301         -0.085890
 Vib (Bot)    3  0.897542D+00         -0.046945         -0.108095
 Vib (Bot)    4  0.688739D+00         -0.161945         -0.372893
 Vib (Bot)    5  0.348987D+00         -0.457190         -1.052720
 Vib (Bot)    6  0.336603D+00         -0.472882         -1.088852
 Vib (V=0)       0.697848D+01          0.843761          1.942832
 Vib (V=0)    1  0.175180D+01          0.243485          0.560644
 Vib (V=0)    2  0.154507D+01          0.188947          0.435067
 Vib (V=0)    3  0.152742D+01          0.183957          0.423577
 Vib (V=0)    4  0.135109D+01          0.130686          0.300915
 Vib (V=0)    5  0.110975D+01          0.045224          0.104133
 Vib (V=0)    6  0.110274D+01          0.042475          0.097802
 Electronic      0.100000D+01          0.000000          0.000000
 Translational   0.215650D+08          7.333750         16.886583
 Rotational      0.441424D+05          4.644856         10.695176
 ***** Axes restored to original set *****
 -------------------------------------------------------------------
 Center     Atomic                   Forces (Hartrees/Bohr)
 Number     Number              X              Y              Z
 -------------------------------------------------------------------
      1        6           0.000863007    0.000001675   -0.000000040
      2        1           0.000189095    0.000676614    0.001167843
      3        1           0.000181635   -0.001338254    0.000000910
      4        1           0.000188629    0.000675478   -0.001168712
      5       17          -0.000683240    0.000016352   -0.000000111
      6        7          -0.001045503   -0.000010163    0.000000405
      7        1           0.000098674   -0.000421439    0.000715344
      8        1           0.000099170   -0.000422448   -0.000715303
      9        1           0.000108534    0.000822185   -0.000000336
 -------------------------------------------------------------------
 Cartesian Forces:  Max     0.001338254 RMS     0.000606475

 GradGradGradGradGradGradGradGradGradGradGradGradGradGradGradGradGradGrad
 Berny optimization.
 Search for a local minimum.
 Step number   1 out of a maximum of    2
 All quantities printed in internal units (Hartrees-Bohrs-Radians)
 Second derivative matrix not updated -- analytic derivatives used.
 ITU=  0
     Eigenvalues ---   -0.17156   0.00117   0.00459   0.00490   0.02011
     Eigenvalues ---    0.02025   0.02553   0.04993   0.05012   0.08085
     Eigenvalues ---    0.10433   0.10445   0.12755   0.12780   0.13445
     Eigenvalues ---    0.38198   0.59701   0.89814   0.89852   1.04929
     Eigenvalues ---    1.04953
 Eigenvalue     1 is  -1.72D-01 should be greater than     0.000000 Eigenvector:
                          X1        X5        X6        X9        X7
   1                    0.90237  -0.31678  -0.24120  -0.08784  -0.08747
                          X8        Y3        Z4        Z2        Y9
   1                   -0.08747  -0.03151  -0.02628   0.02626  -0.02081
 Angle between quadratic step and forces=  32.15 degrees.
 Linear search not attempted -- first point.
 B after Tr=    -0.000722   -0.000231    0.000004
         Rot=    1.000000    0.000000    0.000001    0.000036 Ang=   0.00 deg.
 Variable       Old X    -DE/DX   Delta X   Delta X   Delta X     New X
                                 (Linear)    (Quad)   (Total)
    X1       -0.78977   0.00086   0.00000   0.00626   0.00554  -0.78423
    Y1        0.00033   0.00000   0.00000   0.00049   0.00032   0.00065
    Z1       -0.00000  -0.00000   0.00000  -0.00001  -0.00001  -0.00001
    X2       -0.89223   0.00019   0.00000   0.00202   0.00123  -0.89100
    Y2       -1.01769   0.00068   0.00000   0.00231   0.00215  -1.01554
    Z2       -1.76070   0.00117   0.00000   0.00311   0.00311  -1.75759
    X3       -0.89234   0.00018   0.00000   0.00213   0.00155  -0.89079
    Y3        2.03431  -0.00134   0.00000  -0.00307  -0.00323   2.03107
    Z3       -0.00097   0.00000   0.00000   0.00001   0.00001  -0.00096
    X4       -0.89224   0.00019   0.00000   0.00200   0.00121  -0.89103
    Y4       -1.01602   0.00068   0.00000   0.00229   0.00212  -1.01389
    Z4        1.76166  -0.00117   0.00000  -0.00314  -0.00313   1.75853
    X5        3.37926  -0.00068   0.00000  -0.00450  -0.00522   3.37404
    Y5       -0.00009   0.00002   0.00000  -0.00041  -0.00088  -0.00097
    Z5        0.00000  -0.00000   0.00000   0.00001   0.00001   0.00001
    X6       -4.79913  -0.00105   0.00000  -0.00093  -0.00165  -4.80078
    Y6       -0.00028  -0.00001   0.00000   0.00001   0.00012  -0.00016
    Z6        0.00000   0.00000   0.00000  -0.00000  -0.00001  -0.00001
    X7       -5.47890   0.00010   0.00000  -0.00066  -0.00131  -5.48021
    Y7        0.89840  -0.00042   0.00000  -0.00138  -0.00121   0.89719
    Z7       -1.55660   0.00072   0.00000   0.00171   0.00171  -1.55490
    X8       -5.47888   0.00010   0.00000  -0.00061  -0.00127  -5.48015
    Y8        0.89959  -0.00042   0.00000  -0.00135  -0.00119   0.89839
    Z8        1.55593  -0.00072   0.00000  -0.00171  -0.00171   1.55422
    X9       -5.48036   0.00011   0.00000   0.00078  -0.00007  -5.48043
    Y9       -1.79711   0.00082   0.00000   0.00165   0.00182  -1.79530
    Z9        0.00069  -0.00000   0.00000   0.00002   0.00002   0.00071
         Item               Value     Threshold  Converged?
 Maximum Force            0.001338     0.000450     NO 
 RMS     Force            0.000606     0.000300     NO 
 Maximum Displacement     0.005535     0.001800     NO 
 RMS     Displacement     0.002120     0.001200     NO 
 Predicted change in Energy=-2.474405D-05
 GradGradGradGradGradGradGradGradGradGradGradGradGradGradGradGradGradGrad


 ----------------------------------------------------------------------

 Electric dipole moment (input orientation):
 (Debye = 10**-18 statcoulomb cm , SI units = C m)
                  (au)            (Debye)         (10**-30 SI)
   Tot        0.440646D+01      0.112001D+02      0.373595D+02
   x         -0.440646D+01     -0.112001D+02     -0.373595D+02
   y          0.735704D-03      0.186997D-02      0.623756D-02
   z          0.000000D+00      0.000000D+00      0.000000D+00

 Dipole polarizability, Alpha (input orientation).
 (esu units = cm**3 , SI units = C**2 m**2 J**-1)
 Alpha(0;0):
               (au)            (10**-24 esu)      (10**-40 SI)
   iso        0.639765D+02      0.948034D+01      0.105483D+02
   aniso      0.720422D+02      0.106756D+02      0.118782D+02
   xx         0.112005D+03      0.165974D+02      0.184671D+02
   yx         0.301689D-01      0.447057D-02      0.497418D-02
   yy         0.399373D+02      0.591810D+01      0.658478D+01
   zx         0.666654D-04      0.987880D-05      0.109916D-04
   zy         0.501316D-04      0.742874D-05      0.826559D-05
   zz         0.399876D+02      0.592555D+01      0.659306D+01

 ----------------------------------------------------------------------

 Dipole orientation:
     6         -0.00000404          0.00020073          0.78976572
     1         -1.76087343         -1.01754241          0.89206172
     1         -0.00062636          2.03415830          0.89268343
     1          1.76149126         -1.01645999          0.89206898
    17          0.00000134          0.00047728         -3.37926303
     7         -0.00000197         -0.00108472          4.79913323
     1         -1.55645360          0.89774925          5.47904930
     1          1.55607477          0.89841256          5.47902987
     1          0.00038562         -1.79802949          5.48006060

 Electric dipole moment (dipole orientation):
 (Debye = 10**-18 statcoulomb cm , SI units = C m)
                  (au)            (Debye)         (10**-30 SI)
   Tot        0.440646D+01      0.112001D+02      0.373595D+02
   x          0.000000D+00      0.000000D+00      0.000000D+00
   y          0.000000D+00      0.000000D+00      0.000000D+00
   z          0.440646D+01      0.112001D+02      0.373595D+02

 Dipole polarizability, Alpha (dipole orientation).
 (esu units = cm**3 , SI units = C**2 m**2 J**-1)
 Alpha(0;0):
               (au)            (10**-24 esu)      (10**-40 SI)
   iso        0.639765D+02      0.948034D+01      0.105483D+02
   aniso      0.720422D+02      0.106756D+02      0.118782D+02
   xx         0.399876D+02      0.592555D+01      0.659306D+01
   yx         0.417751D-04      0.619043D-05      0.688778D-05
   yy         0.399374D+02      0.591811D+01      0.658478D+01
   zx        -0.100527D-03     -0.148966D-04     -0.165747D-04
   zy        -0.422012D-01     -0.625358D-02     -0.695804D-02
   zz         0.112005D+03      0.165974D+02      0.184671D+02

 ----------------------------------------------------------------------
 1\1\GINC-ANMOL\Freq\RM062X\6-311+G(d,p)\C1H6Cl1N1\ANMOL\22-Jul-2024\0\
 \# freq 6-311+g(d,p) scrf=(smd,solvent=water) m062x\\Title Card Requir
 ed\\0,1\C,-0.417926,0.000176,-0.000002\H,-0.472149,-0.538537,-0.931724
 \H,-0.472208,1.076509,-0.000511\H,-0.472152,-0.537653,0.932231\Cl,1.78
 8229,-0.000046,0.\N,-2.539592,-0.00015,0.\H,-2.899309,0.475415,-0.8237
 18\H,-2.899298,0.476041,0.823361\H,-2.900082,-0.950992,0.000364\\Versi
 on=ES64L-G16RevA.03\State=1-A\HF=-556.6205163\RMSD=3.448e-09\RMSF=6.06
 5e-04\ZeroPoint=0.0751234\Thermal=0.0806499\Dipole=-4.4064597,0.000735
 7,0.0000016\DipoleDeriv=4.68328,0.0030576,0.0000273,0.0026271,0.112756
 8,-0.0000171,0.0000183,0.0000128,0.1124558,-0.2326767,-0.009743,-0.015
 6099,0.0104616,0.0987871,-0.0156518,0.0187229,-0.0168341,0.0772401,-0.
 2308442,0.0171763,-0.0000167,-0.0241613,0.0687599,0.0000169,0.000014,-
 0.0000015,0.109331,-0.2326712,-0.0097258,0.015623,0.0104354,0.0988248,
 0.0156533,-0.0187504,0.0168145,0.0772117,-2.3772665,-0.0001914,-0.0000
 07,0.0001305,-0.635177,0.0000026,-0.000002,0.0000056,-0.6336779,-2.077
 8377,-0.0001056,-0.0000284,-0.0010414,-0.4757198,-0.0000004,-0.0000321
 ,-0.0000028,-0.4731225,0.1564409,0.0287336,-0.0503434,-0.0126241,0.248
 8405,0.0084143,0.0211005,0.0085911,0.2383462,0.1564215,0.0287838,0.050
 34,-0.0126248,0.2488189,-0.0084263,-0.0210726,-0.008603,0.2383503,0.15
 51539,-0.0579856,0.0000152,0.026797,0.2341087,0.0000087,0.0000014,0.00
 00175,0.2538653\Polar=112.004652,0.0301689,39.9373477,0.0000667,0.0000
 501,39.9875717\Quadrupole=0.9364778,-0.4666819,-0.4697959,-0.0016519,-
 0.0000202,0.0000022\PG=C01 [X(C1H6Cl1N1)]\NImag=1\\-0.12311355,-0.0002
 1580,0.69133407,-0.00000481,-0.00000469,0.69133838,-0.01138240,-0.0098
 9928,-0.01668747,0.04867676,-0.00899390,-0.13520011,-0.13951118,0.0079
 1141,0.12818155,-0.01513426,-0.13942704,-0.29575528,0.01328589,0.14572
 246,0.29591795,-0.01172401,0.01985611,-0.00001009,0.00195845,-0.001240
 12,-0.00005617,0.04897219,0.01805757,-0.37665546,0.00015579,0.00065755
 ,-0.00526031,0.00356687,-0.01567444,0.38077269,-0.00000915,0.00015573,
 -0.05489362,0.00101865,-0.02175926,0.00530269,0.00000888,-0.00016292,0
 .04414003,-0.01138092,-0.00987980,0.01670086,0.00196433,0.00057867,-0.
 00110164,0.00195853,0.00065656,-0.00101941,0.04867773,-0.00897559,-0.1
 3493648,0.13936144,0.00057960,0.01055067,-0.01271097,-0.00123985,-0.00
 524252,0.02176932,0.00789675,0.12790494,0.01514738,0.13927625,-0.29601
 249,0.00110106,0.01269182,-0.01054836,0.00005748,-0.00355642,0.0052854
 3,-0.01329760,-0.14556805,0.29618566,0.06795654,0.00002358,0.00000077,
 -0.02159361,0.00164076,0.00285497,-0.02166927,-0.00327532,0.00000158,-
 0.02159164,0.00163638,-0.00285760,0.04002197,0.00004163,-0.01977614,-0
 .00000121,-0.00563917,0.00111858,0.00130625,0.01128099,0.00335449,-0.0
 0000182,-0.00563108,0.00111712,-0.00130324,-0.00005165,0.01091950,0.00
 000006,0.00000026,-0.01979342,-0.00969618,0.00128859,0.00272011,-0.000
 00563,-0.00000225,0.00040482,0.00970146,-0.00128659,0.00272298,0.00000
 046,-0.00000004,0.01065964,0.07093838,0.00007241,0.00000052,-0.0164567
 9,-0.00001042,-0.00004520,-0.01635360,-0.00016416,-0.00000047,-0.01646
 100,-0.00001084,0.00004571,-0.03448203,0.00000075,-0.00000011,0.243414
 84,0.00014861,-0.02778352,0.00000034,0.00682220,0.00074945,0.00158559,
 -0.01387713,0.00323639,-0.00000130,0.00681062,0.00074619,-0.00158378,0
 .00000539,0.00339233,0.00000001,0.00001838,0.68418472,0.00000238,-0.00
 000089,-0.02786899,0.01172341,0.00160799,0.00254075,0.00000587,-0.0000
 0110,-0.00011311,-0.01172940,-0.00160532,0.00254467,-0.00000079,0.0000
 0007,0.00341225,-0.00001355,-0.00000929,0.68444049,0.00620011,0.003977
 55,-0.00688312,-0.00001104,0.00056021,0.00040492,-0.00000034,-0.000645
 18,-0.00027773,-0.00313420,-0.00051532,0.00088974,-0.00287492,-0.00043
 986,0.00076522,-0.07691949,0.07938203,-0.13705141,0.07250473,0.0027241
 5,0.00036902,-0.00110086,0.00018111,-0.00014167,-0.00002085,-0.0001717
 6,-0.00014084,-0.00004308,-0.00061682,0.00008243,0.00000658,-0.0008677
 6,0.00001111,0.00009133,0.05836654,-0.14052943,0.14129665,-0.06719759,
 0.14396401,-0.00468675,-0.00109979,0.00162843,0.00010239,-0.00004665,-
 0.00009984,-0.00010682,-0.00002406,-0.00010769,0.00105925,0.00000581,0
 .00008049,0.00149518,0.00009202,-0.00009473,-0.10068746,0.14124386,-0.
 30321059,0.11589876,-0.15370964,0.32107827,0.00620115,0.00398289,0.006
 88021,-0.00313444,-0.00051632,-0.00088927,0.00000005,-0.00064464,0.000
 27821,-0.00001100,0.00055999,-0.00040540,-0.00287523,-0.00044047,-0.00
 076492,-0.07691763,0.07949090,0.13700091,0.00209984,-0.00757368,-0.013
 09559,0.07250224,0.00272734,0.00037063,0.00110151,-0.00061749,0.000082
 45,-0.00000649,-0.00017144,-0.00014052,0.00004326,0.00018115,-0.000141
 58,0.00002101,-0.00086870,0.00001097,-0.00009141,0.05844838,-0.1407641
 0,-0.14142203,-0.00756382,0.00993499,0.01655605,-0.06729045,0.14421767
 ,0.00468376,0.00110094,0.00162682,-0.00105877,-0.00000592,0.00008049,0
 .00010686,0.00002410,-0.00010774,-0.00010233,0.00004670,-0.00009972,-0
 .00149416,-0.00009210,-0.00009461,0.10065392,-0.14137024,-0.30300440,0
 .01310149,-0.01658041,-0.02137228,-0.11585805,0.15384717,0.32085252,0.
 00630470,-0.00791766,0.00000314,-0.00002129,0.00006972,0.00068075,-0.0
 0314202,0.00103206,-0.00000056,-0.00002182,0.00006888,-0.00068076,-0.0
 0289181,0.00087886,-0.00000034,-0.07676268,-0.15880101,0.00006259,0.00
 213532,0.01515580,0.00002104,0.00213501,0.01515503,-0.00003270,0.07226
 460,-0.00551400,0.00227799,-0.00000114,0.00000407,-0.00008062,-0.00001
 582,0.00123763,0.00007608,0.00000007,0.00000394,-0.00008077,0.00001583
 ,0.00175732,-0.00014797,0.00000009,-0.11672104,-0.38323204,0.00013393,
 -0.00755802,-0.01354960,-0.00301760,-0.00756823,-0.01357052,0.00302976
 ,0.13435833,0.40830745,0.00000141,-0.00000077,-0.00026983,0.00021103,0
 .00001216,-0.00015851,-0.00000038,-0.00000002,0.00008920,-0.00021119,-
 0.00001233,-0.00015867,-0.00000041,0.00000007,0.00006297,0.00004664,0.
 00013481,-0.05874106,0.01315214,0.03006029,0.00209794,-0.01314609,-0.0
 3004907,0.00211892,-0.00005316,-0.00014513,0.05495904\\-0.00086301,-0.
 00000167,0.00000004,-0.00018909,-0.00067661,-0.00116784,-0.00018163,0.
 00133825,-0.00000091,-0.00018863,-0.00067548,0.00116871,0.00068324,-0.
 00001635,0.00000011,0.00104550,0.00001016,-0.00000040,-0.00009867,0.00
 042144,-0.00071534,-0.00009917,0.00042245,0.00071530,-0.00010853,-0.00
 082218,0.00000034\\\@


 THE ATTENTION SPAN OF A COMPUTER IS AS LONG
 AS ITS EXTENSION CORD.
 Job cpu time:       0 days  0 hours  4 minutes 26.1 seconds.
 Elapsed time:       0 days  0 hours  0 minutes 26.8 seconds.
 File lengths (MBytes):  RWF=     32 Int=      0 D2E=      0 Chk=      4 Scr=      1
 Normal termination of Gaussian 16 at Mon Jul 22 16:28:50 2024.
