 
327 atoms
5 atom types
   0.0000000000   14.9800000000 xlo xhi
   0.0000000000   14.9800000000 ylo yhi
   0.0000000000   14.9800000000 zlo zhi
   0.0000000000    0.0000000000    0.0000000000 xy xz yz

Atoms # atomic

 1 1 -1.28538 5.8405 -1.50912
 2 2 -1.96177 5.22466 -1.13005
 3 2 -0.552785 5.82503 -0.860584
 4 1 5.22865 2.83481 8.66771
 5 2 5.14745 2.42975 9.6215
 6 2 4.74767 2.23028 8.07397
 7 1 2.13482 3.65299 6.13927
 8 2 1.93873 3.26035 7.06016
 9 2 1.95349 2.94007 5.4129
 10 1 8.53832 14.7472 10.4764
 11 2 7.78401 14.8696 9.8399
 12 2 8.10912 14.7458 11.3947
 13 1 18.955 16.1556 5.01763
 14 2 19.4367 15.5725 4.25043
 15 2 18.0477 16.3601 4.69901
 16 1 9.92926 12.5458 9.96357
 17 2 9.67745 11.9204 9.22287
 18 2 9.30168 13.3274 10.0213
 19 1 10.6933 9.64044 17.5135
 20 2 10.0218 9.38599 18.1988
 21 2 11.1347 8.72077 17.4553
 22 1 5.95774 14.5998 9.26886
 23 2 5.40469 14.634 8.47331
 24 2 5.76322 15.3949 9.84659
 25 1 2.35297 2.46021 15.613
 26 2 3.09121 3.06999 15.5417
 27 2 1.72159 2.896 16.3019
 28 1 6.48781 16.7108 1.20304
 29 2 6.18432 15.9771 0.509817
 30 2 7.52549 16.7004 1.20339
 31 1 3.19553 10.7787 9.43635
 32 2 2.28187 10.5237 9.73024
 33 2 3.54778 11.63 9.8418
 34 1 10.4053 8.28861 -0.641962
 35 2 11.0975 8.27453 -1.40855
 36 2 10.8727 8.07581 0.177931
 37 1 1.12823 9.24098 5.51254
 38 2 2.05393 8.89237 5.4182
 39 2 0.859452 9.47692 4.62727
 40 1 15.2989 10.7482 2.41832
 41 2 14.739 11.4282 2.88203
 42 2 16.2679 11.0452 2.36577
 43 1 9.1969 10.8505 8.21032
 44 2 9.11147 10.0042 8.76829
 45 2 9.80753 10.626 7.44506
 46 1 14.121 12.1305 13.5743
 47 2 14.3796 11.1008 13.6557
 48 2 13.2516 12.2126 13.9774
 49 1 6.19642 4.85626 4.24102
 50 2 6.18125 4.98897 3.2417
 51 2 6.26718 3.92211 4.61207
 52 1 2.24059 8.78765 13.7565
 53 2 2.77981 9.01638 12.9724
 54 2 1.26483 9.12748 13.636
 55 1 11.7522 7.18851 1.90624
 56 2 12.7111 7.41115 1.7872
 57 2 11.8318 6.37193 2.45742
 58 1 18.9604 15.7552 7.56853
 59 2 19.0029 15.6627 6.57083
 60 2 18.0382 15.5381 7.90455
 61 1 7.31071 8.72884 2.73153
 62 2 7.09589 7.88005 2.26331
 63 2 6.52279 8.90781 3.34682
 64 1 16.7735 2.84161 8.5911
 65 2 17.2861 3.13094 9.34909
 66 2 15.9883 2.29428 8.9526
 67 1 7.70164 7.2022 14.5121
 68 2 7.7029 6.41806 13.8447
 69 2 8.55661 7.64813 14.5109
 70 1 16.8094 7.04526 17.0288
 71 2 16.6144 6.53021 17.9085
 72 2 16.6116 6.38384 16.333
 73 1 9.12767 10.7057 14.302
 74 2 9.61253 9.84828 14.4215
 75 2 8.4649 10.8588 15.035
 76 1 9.9939 5.82895 10.8754
 77 2 8.9894 6.02925 11.004
 78 2 9.92828 5.08327 10.176
 79 1 13.3841 6.09408 4.3466
 80 2 13.146 7.04614 4.58048
 81 2 12.5899 5.58107 4.57698
 82 1 0.377939 10.5 9.8295
 83 2 0.540774 11.0888 10.6229
 84 2 0.14972 9.55148 10.1397
 85 1 11.0902 4.85612 -1.7018
 86 2 10.7761 5.50672 -2.41789
 87 2 10.9976 3.99908 -2.17014
 88 1 18.9604 8.15854 16.4314
 89 2 19.23 8.60133 17.2331
 90 2 18.024 7.90599 16.7072
 91 1 12.4034 9.57437 7.74128
 92 2 12.088 9.11266 8.57162
 93 2 12.9358 10.3527 8.03186
 94 1 7.97497 2.99795 7.78635
 95 2 8.15951 3.86114 7.25821
 96 2 7.03089 3.05296 8.01326
 97 1 9.37347 14.1717 3.34144
 98 2 9.91045 13.5375 2.72854
 99 2 10.0187 14.2238 4.08552
 100 1 -0.540698 8.46034 1.37118
 101 2 0.397029 8.08657 1.43046
 102 2 -0.465358 9.39498 1.79809
 103 1 7.09723 11.3241 16.5541
 104 2 7.06899 10.3866 16.9237
 105 2 6.9763 11.7417 17.4991
 106 1 13.3411 18.322 0.640904
 107 2 12.4419 18.6247 0.914877
 108 2 13.2242 17.8298 -0.176347
 109 1 18.0942 14.7562 1.31651
 110 2 17.7872 14.3748 0.438612
 111 2 17.6843 15.6381 1.16759
 112 1 4.83113 9.48639 3.80522
 113 2 4.29695 9.1326 4.60073
 114 2 4.84643 10.4828 3.86617
 115 1 7.9518 0.329556 -2.09094
 116 2 7.33811 -0.0908769 -1.39558
 117 2 8.8221 0.188308 -1.6454
 118 1 12.5577 8.24328 12.3628
 119 2 12.3747 8.24264 11.3747
 120 2 12.9918 7.34233 12.4217
 121 1 10.8161 11.3665 6.3621
 122 2 11.0323 11.4766 5.4191
 123 2 11.4991 10.7002 6.69324
 124 1 5.88157 -0.156127 -0.570407
 125 2 5.02706 0.123958 -1.03164
 126 2 5.63392 -1.03211 -0.11644
 127 1 3.73842 0.111533 -2.10463
 128 2 3.71304 -0.729872 -2.67378
 129 2 2.79258 0.220074 -1.91405
 130 1 9.33148 1.379 1.33909
 131 2 9.11222 0.74449 2.0608
 132 2 9.59219 0.798618 0.540097
 133 1 17.1979 12.1141 6.93506
 134 2 17.0305 13.0021 7.50936
 135 2 17.3908 11.4479 7.672
 136 1 5.09079 9.67127 7.65497
 137 2 4.48286 10.182 8.25142
 138 2 5.51496 10.3707 7.08165
 139 1 10.5223 3.93573 1.09028
 140 2 10.2052 3.04779 1.40555
 141 2 10.0859 4.31578 0.229142
 142 1 2.26992 3.43871 11.3614
 143 2 3.01544 3.9496 11.8577
 144 2 1.44596 4.01116 11.5134
 145 1 6.99045 2.83389 12.9387
 146 2 7.62786 2.04363 13.0319
 147 2 6.6472 2.87464 13.8227
 148 1 4.31424 5.4367 5.96375
 149 2 4.99817 5.20935 5.23903
 150 2 3.65908 4.69562 6.01377
 151 1 17.5832 6.49416 10.0745
 152 2 18.1795 7.15566 10.4553
 153 2 18.0837 6.16065 9.28266
 154 1 4.93214 3.96209 0.467477
 155 2 5.45795 3.14781 0.757223
 156 2 5.33806 4.76739 0.883312
 157 1 11.975 13.8793 9.052
 158 2 11.1746 13.2765 9.42608
 159 2 12.0229 14.0066 8.05059
 160 1 13.468 11.7851 8.48352
 161 2 14.1583 11.3343 9.12181
 162 2 13.0996 12.5711 8.98841
 163 1 16.8335 13.9248 8.83548
 164 2 15.9782 14.5011 8.78004
 165 2 16.9183 13.5873 9.78089
 166 1 5.44419 12.1849 14.7181
 167 2 4.57424 11.6776 14.9003
 168 2 6.06765 11.8116 15.4595
 169 1 6.89056 12.9707 3.61508
 170 2 7.82949 13.3577 3.70258
 171 2 6.50026 13.8077 3.25514
 172 1 3.84891 9.05393 11.5369
 173 2 4.54795 9.36973 12.1419
 174 2 3.76712 9.76135 10.7812
 175 1 14.8167 4.44948 11.3344
 176 2 14.8438 5.06399 10.5503
 177 2 14.5055 5.0975 12.0602
 178 1 5.44157 15.052 3.02441
 179 2 5.9685 15.8012 2.50666
 180 2 4.86896 14.768 2.2705
 181 1 14.5274 15.2924 5.79384
 182 2 13.5628 15.3833 5.74997
 183 2 14.5759 14.331 5.7668
 184 1 14.5374 12.689 6.152
 185 2 14.13 12.3685 7.0323
 186 2 15.4646 12.346 6.17033
 187 1 4.3542 13.135 10.7097
 188 2 5.04004 13.5851 10.1413
 189 2 5.0233 12.4763 11.2305
 190 1 1.58813 5.90557 14.5733
 191 2 1.98101 6.8437 14.3906
 192 2 2.17841 5.38581 13.9822
 193 1 9.28529 7.10454 7.48436
 194 2 9.24002 7.49688 6.59278
 195 2 8.352 7.2843 7.72755
 196 1 15.0529 7.8366 10.1007
 197 2 15.7407 7.30545 10.5682
 198 2 15.3453 7.70088 9.1297
 199 1 15.9954 5.40777 3.94971
 200 2 15.0453 5.7965 4.27555
 201 2 16.5526 5.04816 4.65625
 202 1 5.41071 1.36592 11.0759
 203 2 5.99997 1.7203 11.7821
 204 2 4.63183 1.01627 11.5566
 205 1 1.62712 13.0853 14.1537
 206 2 0.702558 12.7941 14.2194
 207 2 2.15899 12.3543 14.4995
 208 1 5.25746 6.70898 11.7139
 209 2 5.28974 6.93157 10.7525
 210 2 5.45931 7.5412 12.2043
 211 1 6.35336 2.55709 5.12181
 212 2 5.45496 2.13048 5.3294
 213 2 6.90342 2.50316 5.96486
 214 1 14.822 5.11726 8.69957
 215 2 14.9784 5.94612 8.18268
 216 2 15.712 4.69189 8.79448
 217 1 14.6176 9.60917 -1.24081
 218 2 13.8093 9.2407 -1.7048
 219 2 14.5524 9.37167 -0.300468
 220 1 13.0334 11.3694 4.21047
 221 2 13.4371 11.9199 4.97432
 222 2 13.0199 10.4363 4.5194
 223 1 6.74249 7.59587 8.76737
 224 2 6.17883 6.83006 8.53697
 225 2 6.14912 8.36009 8.43678
 226 1 11.5106 8.11058 9.8385
 227 2 11.2329 7.13244 9.71363
 228 2 10.6481 8.49297 10.1609
 229 1 10.7085 4.95941 3.79747
 230 2 10.4749 4.6808 2.85551
 231 2 9.99809 4.85116 4.43628
 232 1 7.53557 5.51863 12.5634
 233 2 7.60365 4.50076 12.4827
 234 2 6.63822 5.76905 12.2161
 235 1 5.97997 6.11561 1.61055
 236 2 6.42391 6.45169 0.747019
 237 2 5.07733 6.56532 1.58839
 238 1 3.09646 11.024 15.2345
 239 2 3.02916 10.9993 16.2387
 240 2 2.89737 10.1547 14.8819
 241 1 16.0118 12.421 11.4562
 242 2 16.6777 12.6492 12.1239
 243 2 15.1448 12.5261 11.8968
 244 1 11.1324 12.3781 2.35347
 245 2 11.9333 12.3135 2.92984
 246 2 10.9213 11.3996 2.14798
 247 1 11.286 1.75214 -2.06013
 248 2 10.9734 1.53472 -2.99811
 249 2 12.3179 1.79695 -2.26332
 250 1 14.8764 7.66192 7.33991
 251 2 15.465 8.04158 6.60968
 252 2 14.2876 8.37109 7.60405
 253 1 5.61444 11.3195 12.1604
 254 2 6.56101 11.3959 11.9101
 255 2 5.63003 11.6298 13.1367
 256 1 4.91721 5.75055 8.5296
 257 2 4.70603 5.47088 7.64664
 258 2 4.84145 4.86788 9.00406
 259 1 13.8003 17.0726 -2.3383
 260 2 14.7374 16.833 -1.98617
 261 2 14.0226 17.7032 -3.06268
 262 1 8.22637 11.0963 11.7511
 263 2 8.38534 10.968 12.7278
 264 2 8.97918 11.6354 11.2951
 265 1 5.19558 8.6762 13.8079
 266 2 6.12082 8.40654 14.1577
 267 2 4.51108 8.53899 14.5796
 268 1 10.0306 3.68435 9.27983
 269 2 9.33356 3.30239 8.68461
 270 2 10.4659 2.85298 9.5676
 271 1 2.67182 11.9931 2.70443
 272 2 2.99439 12.0799 3.66588
 273 2 2.89052 12.871 2.27833
 274 1 1.37231 1.62463 -1.67427
 275 2 1.6551 1.72854 -0.73034
 276 2 1.8749 2.32734 -2.2419
 277 1 0.516749 3.44964 2.25754
 278 2 -0.281039 3.27805 1.68331
 279 2 0.365641 4.28617 2.7424
 280 1 11.3977 12.4191 -0.598143
 281 2 10.5342 11.8632 -0.596391
 282 2 11.4717 12.5702 0.387501
 283 1 8.95162 9.07637 10.2188
 284 2 8.4984 9.70432 10.8464
 285 2 8.34108 8.29834 10.0094
 286 1 16.4898 1.74575 4.27738
 287 2 15.7319 1.22669 4.6043
 288 2 16.1997 2.19772 3.47444
 289 1 4.04528 12.1972 4.85923
 290 2 3.39484 12.1917 5.63695
 291 2 4.87838 12.7137 4.9816
 292 1 3.53365 8.23369 5.74019
 293 2 3.66934 7.26369 5.89256
 294 2 3.93208 8.81305 6.52348
 295 1 3.82713 4.71979 13.2851
 296 2 4.36829 4.34811 14.1319
 297 2 4.38671 5.47407 12.9543
 298 1 14.9159 0.793039 8.4981
 299 2 15.0448 0.606126 7.47586
 300 2 13.9873 0.512573 8.7235
 301 1 10.9499 1.20618 10.2024
 302 2 11.5097 0.45374 9.87165
 303 2 10.0327 0.839246 10.0876
 304 1 10.1419 14.888 -0.626683
 305 2 10.628 14.0251 -0.723577
 306 2 10.7734 15.5352 -1.17294
 307 3 11.7056 1.84613 6.39282
 308 2 10.7458 2.35048 6.64576
 309 2 12.4323 1.82142 7.24133
 310 2 12.1607 2.32993 5.5144
 311 4 11.2966 0.143591 6.03301
 312 5 12.0349 4.81607 7.1818
 313 2 11.5897 4.26962 7.94998
 314 2 11.4212 5.60266 6.98704
 315 2 12.9599 5.13698 7.44228
 316 1 12.2265 8.56765 5.11545
 317 2 11.3443 8.78975 4.71956
 318 2 12.0163 8.41054 6.05023
 319 1 8.58487 20.0785 5.72553
 320 2 7.7732 20.2917 5.19555
 321 2 8.88625 20.8741 6.26534
 322 1 7.1761 11.1026 6.2399
 323 2 7.10184 11.7572 5.53386
 324 2 7.85665 11.3718 6.84878
 325 1 9.02887 8.77132 4.94604
 326 2 8.2806 8.48379 4.3076
 327 2 8.72719 9.65281 5.35335
